 Entering Gaussian System, Link 0=/home/rong/g16/g16
 Input=/home/rong/gdata/080322/Y10B1-2.gjf
 Output=/home/rong/gdata/080322/Y10B1-2.log
 Initial command:
 /home/rong/g16/l1.exe "/home/rong//tmp/Gau-724872.inp" -scrdir="/home/rong//tmp/"
 Entering Link 1 = /home/rong/g16/l1.exe PID=    724874.
  
 Copyright (c) 1988-2019, Gaussian, Inc.  All Rights Reserved.
  
 This is part of the Gaussian(R) 16 program.  It is based on
 the Gaussian(R) 09 system (copyright 2009, Gaussian, Inc.),
 the Gaussian(R) 03 system (copyright 2003, Gaussian, Inc.),
 the Gaussian(R) 98 system (copyright 1998, Gaussian, Inc.),
 the Gaussian(R) 94 system (copyright 1995, Gaussian, Inc.),
 the Gaussian 92(TM) system (copyright 1992, Gaussian, Inc.),
 the Gaussian 90(TM) system (copyright 1990, Gaussian, Inc.),
 the Gaussian 88(TM) system (copyright 1988, Gaussian, Inc.),
 the Gaussian 86(TM) system (copyright 1986, Carnegie Mellon
 University), and the Gaussian 82(TM) system (copyright 1983,
 Carnegie Mellon University). Gaussian is a federally registered
 trademark of Gaussian, Inc.
  
 This software contains proprietary and confidential information,
 including trade secrets, belonging to Gaussian, Inc.
  
 This software is provided under written license and may be
 used, copied, transmitted, or stored only in accord with that
 written license.
  
 The following legend is applicable only to US Government
 contracts under FAR:
  
                    RESTRICTED RIGHTS LEGEND
  
 Use, reproduction and disclosure by the US Government is
 subject to restrictions as set forth in subparagraphs (a)
 and (c) of the Commercial Computer Software - Restricted
 Rights clause in FAR 52.227-19.
  
 Gaussian, Inc.
 340 Quinnipiac St., Bldg. 40, Wallingford CT 06492
  
  
 ---------------------------------------------------------------
 Warning -- This program may not be used in any manner that
 competes with the business of Gaussian, Inc. or will provide
 assistance to any competitor of Gaussian, Inc.  The licensee
 of this program is prohibited from giving any competitor of
 Gaussian, Inc. access to this program.  By using this program,
 the user acknowledges that Gaussian, Inc. is engaged in the
 business of creating and licensing software in the field of
 computational chemistry and represents and warrants to the
 licensee that it is not a competitor of Gaussian, Inc. and that
 it will not use this program in any manner prohibited above.
 ---------------------------------------------------------------
  

 Cite this work as:
 Gaussian 16, Revision C.01,
 M. J. Frisch, G. W. Trucks, H. B. Schlegel, G. E. Scuseria, 
 M. A. Robb, J. R. Cheeseman, G. Scalmani, V. Barone, 
 G. A. Petersson, H. Nakatsuji, X. Li, M. Caricato, A. V. Marenich, 
 J. Bloino, B. G. Janesko, R. Gomperts, B. Mennucci, H. P. Hratchian, 
 J. V. Ortiz, A. F. Izmaylov, J. L. Sonnenberg, D. Williams-Young, 
 F. Ding, F. Lipparini, F. Egidi, J. Goings, B. Peng, A. Petrone, 
 T. Henderson, D. Ranasinghe, V. G. Zakrzewski, J. Gao, N. Rega, 
 G. Zheng, W. Liang, M. Hada, M. Ehara, K. Toyota, R. Fukuda, 
 J. Hasegawa, M. Ishida, T. Nakajima, Y. Honda, O. Kitao, H. Nakai, 
 T. Vreven, K. Throssell, J. A. Montgomery, Jr., J. E. Peralta, 
 F. Ogliaro, M. J. Bearpark, J. J. Heyd, E. N. Brothers, K. N. Kudin, 
 V. N. Staroverov, T. A. Keith, R. Kobayashi, J. Normand, 
 K. Raghavachari, A. P. Rendell, J. C. Burant, S. S. Iyengar, 
 J. Tomasi, M. Cossi, J. M. Millam, M. Klene, C. Adamo, R. Cammi, 
 J. W. Ochterski, R. L. Martin, K. Morokuma, O. Farkas, 
 J. B. Foresman, and D. J. Fox, Gaussian, Inc., Wallingford CT, 2019.
 
 ******************************************
 Gaussian 16:  ES64L-G16RevC.01  3-Jul-2019
                12-Sep-2022 
 ******************************************
 %chk=/home/rong/gdata/080322/Y10B1-2.chk
 %mem=200GB
 %nprocshared=64
 Will use up to   64 processors via shared memory.
 ----------------------------------------------------
 # opt freq b3lyp/6-31g(d) scrf=(smd,solvent=toluene)
 ----------------------------------------------------
 1/18=20,19=15,26=3,38=1/1,3;
 2/9=110,12=2,17=6,18=5,40=1/2;
 3/5=1,6=6,7=1,11=2,25=1,30=1,70=32201,71=1,72=13,74=-5/1,2,3;
 4//1;
 5/5=2,38=5,53=13/2;
 6/7=2,8=2,9=2,10=2,28=1/1;
 7//1,2,3,16;
 1/18=20,19=15,26=3/3(2);
 2/9=110/2;
 99//99;
 2/9=110/2;
 3/5=1,6=6,7=1,11=2,25=1,30=1,70=32205,71=1,72=13,74=-5/1,2,3;
 4/5=5,16=3,69=1/1;
 5/5=2,38=5,53=13/2;
 7//1,2,3,16;
 1/18=20,19=15,26=3/3(-5);
 2/9=110/2;
 6/7=2,8=2,9=2,10=2,19=2,28=1/1;
 99/9=1/99;
 --------------
 biphenMeCHNCH2
 --------------
 Symbolic Z-matrix:
 Charge =  0 Multiplicity = 1
 C                     1.51179  -0.52487  -0.55911 
 C                     2.47127  -1.54543  -0.46791 
 C                     2.45339  -2.42525   0.61059 
 C                     1.48518  -2.29172   1.604 
 C                     0.5093   -1.28856   1.52792 
 C                     0.51418  -0.40022   0.43371 
 H                     3.20661  -1.65403  -1.2601 
 H                     3.1964   -3.21628   0.67589 
 H                     1.47338  -2.98014   2.44553 
 C                    -0.52201   0.67799   0.30516 
 C                    -1.72388   0.40245  -0.38459 
 C                    -0.32548   1.95298   0.87241 
 C                    -2.69882   1.40161  -0.52969 
 C                    -1.31986   2.93043   0.72606 
 C                    -2.49331   2.6619    0.02417 
 H                    -3.59547   1.19033  -1.10547 
 H                    -1.16121   3.91591   1.15745 
 H                    -3.24642   3.43673  -0.09587 
 N                    -1.87789  -0.87226  -0.97175 
 C                    -2.98765  -1.49177  -0.8654 
 H                    -3.82256  -1.08313  -0.27399 
 C                    -3.22489  -2.81163  -1.52885 
 H                    -3.49341  -3.57396  -0.78507 
 H                    -4.07112  -2.74174  -2.22618 
 H                    -2.3345   -3.13501  -2.07408 
 N                     1.44005   0.30777  -1.69573 
 C                     2.39935   1.05695  -2.07606 
 H                     3.13955   0.90447  -1.28296 
 C                     2.81773   2.02449  -3.15066 
 H                     3.81502   1.75058  -3.51856 
 H                     2.11956   2.05888  -3.98957 
 H                     2.90966   3.03568  -2.73077 
 C                    -0.54671  -1.18796   2.60497 
 H                    -0.57307  -0.19398   3.06676 
 H                    -1.54976  -1.37404   2.20139 
 H                    -0.36593  -1.92139   3.39747 
 C                     0.94518   2.28557   1.62112 
 H                     1.82131   2.25412   0.96163 
 H                     0.8915    3.29035   2.05254 
 H                     1.14035   1.57942   2.43643 
 

 GradGradGradGradGradGradGradGradGradGradGradGradGradGradGradGradGradGrad
 Berny optimization.
 Initialization pass.
                           ----------------------------
                           !    Initial Parameters    !
                           ! (Angstroms and Degrees)  !
 --------------------------                            --------------------------
 ! Name  Definition              Value          Derivative Info.                !
 --------------------------------------------------------------------------------
 ! R1    R(1,2)                  1.4037         estimate D2E/DX2                !
 ! R2    R(1,6)                  1.413          estimate D2E/DX2                !
 ! R3    R(1,26)                 1.4108         estimate D2E/DX2                !
 ! R4    R(2,3)                  1.392          estimate D2E/DX2                !
 ! R5    R(2,7)                  1.0863         estimate D2E/DX2                !
 ! R6    R(3,4)                  1.3936         estimate D2E/DX2                !
 ! R7    R(3,8)                  1.0872         estimate D2E/DX2                !
 ! R8    R(4,5)                  1.4016         estimate D2E/DX2                !
 ! R9    R(4,9)                  1.0873         estimate D2E/DX2                !
 ! R10   R(5,6)                  1.4094         estimate D2E/DX2                !
 ! R11   R(5,33)                 1.5117         estimate D2E/DX2                !
 ! R12   R(6,10)                 1.5009         estimate D2E/DX2                !
 ! R13   R(10,11)                1.4129         estimate D2E/DX2                !
 ! R14   R(10,12)                1.4093         estimate D2E/DX2                !
 ! R15   R(11,13)                1.4035         estimate D2E/DX2                !
 ! R16   R(11,19)                1.4119         estimate D2E/DX2                !
 ! R17   R(12,14)                1.402          estimate D2E/DX2                !
 ! R18   R(12,37)                1.5119         estimate D2E/DX2                !
 ! R19   R(13,15)                1.3919         estimate D2E/DX2                !
 ! R20   R(13,16)                1.0863         estimate D2E/DX2                !
 ! R21   R(14,15)                1.3935         estimate D2E/DX2                !
 ! R22   R(14,17)                1.0874         estimate D2E/DX2                !
 ! R23   R(15,18)                1.0872         estimate D2E/DX2                !
 ! R24   R(19,20)                1.2754         estimate D2E/DX2                !
 ! R25   R(20,21)                1.1017         estimate D2E/DX2                !
 ! R26   R(20,22)                1.4962         estimate D2E/DX2                !
 ! R27   R(22,23)                1.0984         estimate D2E/DX2                !
 ! R28   R(22,24)                1.0988         estimate D2E/DX2                !
 ! R29   R(22,25)                1.093          estimate D2E/DX2                !
 ! R30   R(26,27)                1.2752         estimate D2E/DX2                !
 ! R31   R(27,28)                1.0955         estimate D2E/DX2                !
 ! R32   R(27,29)                1.5053         estimate D2E/DX2                !
 ! R33   R(29,30)                1.0977         estimate D2E/DX2                !
 ! R34   R(29,31)                1.092          estimate D2E/DX2                !
 ! R35   R(29,32)                1.0988         estimate D2E/DX2                !
 ! R36   R(33,34)                1.0963         estimate D2E/DX2                !
 ! R37   R(33,35)                1.0971         estimate D2E/DX2                !
 ! R38   R(33,36)                1.0948         estimate D2E/DX2                !
 ! R39   R(37,38)                1.0971         estimate D2E/DX2                !
 ! R40   R(37,39)                1.0948         estimate D2E/DX2                !
 ! R41   R(37,40)                1.0961         estimate D2E/DX2                !
 ! A1    A(2,1,6)              120.072          estimate D2E/DX2                !
 ! A2    A(2,1,26)             121.0767         estimate D2E/DX2                !
 ! A3    A(6,1,26)             118.5634         estimate D2E/DX2                !
 ! A4    A(1,2,3)              120.072          estimate D2E/DX2                !
 ! A5    A(1,2,7)              119.2082         estimate D2E/DX2                !
 ! A6    A(3,2,7)              120.6996         estimate D2E/DX2                !
 ! A7    A(2,3,4)              120.0446         estimate D2E/DX2                !
 ! A8    A(2,3,8)              119.8428         estimate D2E/DX2                !
 ! A9    A(4,3,8)              120.1126         estimate D2E/DX2                !
 ! A10   A(3,4,5)              120.9052         estimate D2E/DX2                !
 ! A11   A(3,4,9)              119.9063         estimate D2E/DX2                !
 ! A12   A(5,4,9)              119.1836         estimate D2E/DX2                !
 ! A13   A(4,5,6)              119.3959         estimate D2E/DX2                !
 ! A14   A(4,5,33)             119.6916         estimate D2E/DX2                !
 ! A15   A(6,5,33)             120.9041         estimate D2E/DX2                !
 ! A16   A(1,6,5)              119.4952         estimate D2E/DX2                !
 ! A17   A(1,6,10)             119.3818         estimate D2E/DX2                !
 ! A18   A(5,6,10)             121.123          estimate D2E/DX2                !
 ! A19   A(6,10,11)            119.2742         estimate D2E/DX2                !
 ! A20   A(6,10,12)            121.2771         estimate D2E/DX2                !
 ! A21   A(11,10,12)           119.4443         estimate D2E/DX2                !
 ! A22   A(10,11,13)           120.1684         estimate D2E/DX2                !
 ! A23   A(10,11,19)           118.1574         estimate D2E/DX2                !
 ! A24   A(13,11,19)           121.5988         estimate D2E/DX2                !
 ! A25   A(10,12,14)           119.3294         estimate D2E/DX2                !
 ! A26   A(10,12,37)           121.0351         estimate D2E/DX2                !
 ! A27   A(14,12,37)           119.632          estimate D2E/DX2                !
 ! A28   A(11,13,15)           120.0588         estimate D2E/DX2                !
 ! A29   A(11,13,16)           119.32           estimate D2E/DX2                !
 ! A30   A(15,13,16)           120.5886         estimate D2E/DX2                !
 ! A31   A(12,14,15)           121.0312         estimate D2E/DX2                !
 ! A32   A(12,14,17)           119.1396         estimate D2E/DX2                !
 ! A33   A(15,14,17)           119.8237         estimate D2E/DX2                !
 ! A34   A(13,15,14)           119.9507         estimate D2E/DX2                !
 ! A35   A(13,15,18)           119.9412         estimate D2E/DX2                !
 ! A36   A(14,15,18)           120.1074         estimate D2E/DX2                !
 ! A37   A(11,19,20)           119.9195         estimate D2E/DX2                !
 ! A38   A(19,20,21)           121.6002         estimate D2E/DX2                !
 ! A39   A(19,20,22)           121.9714         estimate D2E/DX2                !
 ! A40   A(21,20,22)           116.4278         estimate D2E/DX2                !
 ! A41   A(20,22,23)           110.5335         estimate D2E/DX2                !
 ! A42   A(20,22,24)           110.3309         estimate D2E/DX2                !
 ! A43   A(20,22,25)           110.673          estimate D2E/DX2                !
 ! A44   A(23,22,24)           106.5964         estimate D2E/DX2                !
 ! A45   A(23,22,25)           109.3657         estimate D2E/DX2                !
 ! A46   A(24,22,25)           109.2462         estimate D2E/DX2                !
 ! A47   A(1,26,27)            123.2829         estimate D2E/DX2                !
 ! A48   A(26,27,28)           102.1567         estimate D2E/DX2                !
 ! A49   A(26,27,29)           143.0926         estimate D2E/DX2                !
 ! A50   A(28,27,29)           114.7389         estimate D2E/DX2                !
 ! A51   A(27,29,30)           109.353          estimate D2E/DX2                !
 ! A52   A(27,29,31)           113.0159         estimate D2E/DX2                !
 ! A53   A(27,29,32)           109.9971         estimate D2E/DX2                !
 ! A54   A(30,29,31)           109.3444         estimate D2E/DX2                !
 ! A55   A(30,29,32)           106.3622         estimate D2E/DX2                !
 ! A56   A(31,29,32)           108.5478         estimate D2E/DX2                !
 ! A57   A(5,33,34)            112.1626         estimate D2E/DX2                !
 ! A58   A(5,33,35)            111.4253         estimate D2E/DX2                !
 ! A59   A(5,33,36)            110.8424         estimate D2E/DX2                !
 ! A60   A(34,33,35)           106.6633         estimate D2E/DX2                !
 ! A61   A(34,33,36)           107.8442         estimate D2E/DX2                !
 ! A62   A(35,33,36)           107.6751         estimate D2E/DX2                !
 ! A63   A(12,37,38)           111.543          estimate D2E/DX2                !
 ! A64   A(12,37,39)           110.8446         estimate D2E/DX2                !
 ! A65   A(12,37,40)           112.1034         estimate D2E/DX2                !
 ! A66   A(38,37,39)           107.5994         estimate D2E/DX2                !
 ! A67   A(38,37,40)           106.6471         estimate D2E/DX2                !
 ! A68   A(39,37,40)           107.8712         estimate D2E/DX2                !
 ! D1    D(6,1,2,3)             -0.9029         estimate D2E/DX2                !
 ! D2    D(6,1,2,7)            177.4754         estimate D2E/DX2                !
 ! D3    D(26,1,2,3)          -174.6514         estimate D2E/DX2                !
 ! D4    D(26,1,2,7)             3.7269         estimate D2E/DX2                !
 ! D5    D(2,1,6,5)              1.391          estimate D2E/DX2                !
 ! D6    D(2,1,6,10)          -178.6728         estimate D2E/DX2                !
 ! D7    D(26,1,6,5)           175.2954         estimate D2E/DX2                !
 ! D8    D(26,1,6,10)           -4.7685         estimate D2E/DX2                !
 ! D9    D(2,1,26,27)          -60.6484         estimate D2E/DX2                !
 ! D10   D(6,1,26,27)          125.511          estimate D2E/DX2                !
 ! D11   D(1,2,3,4)             -0.2001         estimate D2E/DX2                !
 ! D12   D(1,2,3,8)            179.8083         estimate D2E/DX2                !
 ! D13   D(7,2,3,4)           -178.5539         estimate D2E/DX2                !
 ! D14   D(7,2,3,8)              1.4545         estimate D2E/DX2                !
 ! D15   D(2,3,4,5)              0.8162         estimate D2E/DX2                !
 ! D16   D(2,3,4,9)           -179.9924         estimate D2E/DX2                !
 ! D17   D(8,3,4,5)           -179.1922         estimate D2E/DX2                !
 ! D18   D(8,3,4,9)             -0.0007         estimate D2E/DX2                !
 ! D19   D(3,4,5,6)             -0.3164         estimate D2E/DX2                !
 ! D20   D(3,4,5,33)           178.636          estimate D2E/DX2                !
 ! D21   D(9,4,5,6)           -179.5136         estimate D2E/DX2                !
 ! D22   D(9,4,5,33)            -0.5612         estimate D2E/DX2                !
 ! D23   D(4,5,6,1)             -0.7827         estimate D2E/DX2                !
 ! D24   D(4,5,6,10)           179.2824         estimate D2E/DX2                !
 ! D25   D(33,5,6,1)          -179.722          estimate D2E/DX2                !
 ! D26   D(33,5,6,10)            0.343          estimate D2E/DX2                !
 ! D27   D(4,5,33,34)          124.5211         estimate D2E/DX2                !
 ! D28   D(4,5,33,35)         -115.9774         estimate D2E/DX2                !
 ! D29   D(4,5,33,36)            3.916          estimate D2E/DX2                !
 ! D30   D(6,5,33,34)          -56.5426         estimate D2E/DX2                !
 ! D31   D(6,5,33,35)           62.9589         estimate D2E/DX2                !
 ! D32   D(6,5,33,36)         -177.1477         estimate D2E/DX2                !
 ! D33   D(1,6,10,11)           90.0349         estimate D2E/DX2                !
 ! D34   D(1,6,10,12)          -90.7285         estimate D2E/DX2                !
 ! D35   D(5,6,10,11)          -90.03           estimate D2E/DX2                !
 ! D36   D(5,6,10,12)           89.2066         estimate D2E/DX2                !
 ! D37   D(6,10,11,13)        -179.2443         estimate D2E/DX2                !
 ! D38   D(6,10,11,19)          -2.3507         estimate D2E/DX2                !
 ! D39   D(12,10,11,13)          1.5049         estimate D2E/DX2                !
 ! D40   D(12,10,11,19)        178.3985         estimate D2E/DX2                !
 ! D41   D(6,10,12,14)         179.9212         estimate D2E/DX2                !
 ! D42   D(6,10,12,37)           0.6049         estimate D2E/DX2                !
 ! D43   D(11,10,12,14)         -0.8434         estimate D2E/DX2                !
 ! D44   D(11,10,12,37)        179.8403         estimate D2E/DX2                !
 ! D45   D(10,11,13,15)         -1.0078         estimate D2E/DX2                !
 ! D46   D(10,11,13,16)        176.9252         estimate D2E/DX2                !
 ! D47   D(19,11,13,15)       -177.7922         estimate D2E/DX2                !
 ! D48   D(19,11,13,16)          0.1408         estimate D2E/DX2                !
 ! D49   D(10,11,19,20)        136.9966         estimate D2E/DX2                !
 ! D50   D(13,11,19,20)        -46.1566         estimate D2E/DX2                !
 ! D51   D(10,12,14,15)         -0.3164         estimate D2E/DX2                !
 ! D52   D(10,12,14,17)       -179.4638         estimate D2E/DX2                !
 ! D53   D(37,12,14,15)        179.0096         estimate D2E/DX2                !
 ! D54   D(37,12,14,17)         -0.1378         estimate D2E/DX2                !
 ! D55   D(10,12,37,38)         64.2813         estimate D2E/DX2                !
 ! D56   D(10,12,37,39)       -175.8412         estimate D2E/DX2                !
 ! D57   D(10,12,37,40)        -55.2404         estimate D2E/DX2                !
 ! D58   D(14,12,37,38)       -115.033          estimate D2E/DX2                !
 ! D59   D(14,12,37,39)          4.8445         estimate D2E/DX2                !
 ! D60   D(14,12,37,40)        125.4453         estimate D2E/DX2                !
 ! D61   D(11,13,15,14)         -0.1572         estimate D2E/DX2                !
 ! D62   D(11,13,15,18)        179.5347         estimate D2E/DX2                !
 ! D63   D(16,13,15,14)       -178.0637         estimate D2E/DX2                !
 ! D64   D(16,13,15,18)          1.6282         estimate D2E/DX2                !
 ! D65   D(12,14,15,13)          0.8257         estimate D2E/DX2                !
 ! D66   D(12,14,15,18)       -178.8656         estimate D2E/DX2                !
 ! D67   D(17,14,15,13)        179.9674         estimate D2E/DX2                !
 ! D68   D(17,14,15,18)          0.276          estimate D2E/DX2                !
 ! D69   D(11,19,20,21)         -3.5372         estimate D2E/DX2                !
 ! D70   D(11,19,20,22)        176.7577         estimate D2E/DX2                !
 ! D71   D(19,20,22,23)        121.9653         estimate D2E/DX2                !
 ! D72   D(19,20,22,24)       -120.3858         estimate D2E/DX2                !
 ! D73   D(19,20,22,25)          0.6471         estimate D2E/DX2                !
 ! D74   D(21,20,22,23)        -57.7542         estimate D2E/DX2                !
 ! D75   D(21,20,22,24)         59.8946         estimate D2E/DX2                !
 ! D76   D(21,20,22,25)       -179.0725         estimate D2E/DX2                !
 ! D77   D(1,26,27,28)          -3.9085         estimate D2E/DX2                !
 ! D78   D(1,26,27,29)         177.5336         estimate D2E/DX2                !
 ! D79   D(26,27,29,30)       -131.0152         estimate D2E/DX2                !
 ! D80   D(26,27,29,31)         -8.9655         estimate D2E/DX2                !
 ! D81   D(26,27,29,32)        112.526          estimate D2E/DX2                !
 ! D82   D(28,27,29,30)         50.5372         estimate D2E/DX2                !
 ! D83   D(28,27,29,31)        172.5868         estimate D2E/DX2                !
 ! D84   D(28,27,29,32)        -65.9217         estimate D2E/DX2                !
 --------------------------------------------------------------------------------
 Trust Radius=3.00D-01 FncErr=1.00D-07 GrdErr=1.00D-06 EigMax=2.50D+02 EigMin=1.00D-04
 Number of steps in this run=    203 maximum allowed number of steps=    240.
 GradGradGradGradGradGradGradGradGradGradGradGradGradGradGradGradGradGrad

                          Input orientation:                          
 ---------------------------------------------------------------------
 Center     Atomic      Atomic             Coordinates (Angstroms)
 Number     Number       Type             X           Y           Z
 ---------------------------------------------------------------------
      1          6           0        1.511786   -0.524872   -0.559107
      2          6           0        2.471271   -1.545433   -0.467912
      3          6           0        2.453388   -2.425248    0.610594
      4          6           0        1.485183   -2.291720    1.603996
      5          6           0        0.509298   -1.288558    1.527917
      6          6           0        0.514183   -0.400219    0.433706
      7          1           0        3.206612   -1.654025   -1.260103
      8          1           0        3.196403   -3.216277    0.675889
      9          1           0        1.473377   -2.980144    2.445529
     10          6           0       -0.522006    0.677991    0.305156
     11          6           0       -1.723879    0.402450   -0.384587
     12          6           0       -0.325483    1.952984    0.872413
     13          6           0       -2.698824    1.401605   -0.529689
     14          6           0       -1.319861    2.930429    0.726058
     15          6           0       -2.493314    2.661903    0.024165
     16          1           0       -3.595471    1.190328   -1.105475
     17          1           0       -1.161209    3.915912    1.157450
     18          1           0       -3.246424    3.436733   -0.095868
     19          7           0       -1.877886   -0.872262   -0.971747
     20          6           0       -2.987650   -1.491769   -0.865402
     21          1           0       -3.822558   -1.083132   -0.273994
     22          6           0       -3.224891   -2.811629   -1.528846
     23          1           0       -3.493405   -3.573961   -0.785065
     24          1           0       -4.071124   -2.741743   -2.226180
     25          1           0       -2.334502   -3.135010   -2.074082
     26          7           0        1.440054    0.307773   -1.695728
     27          6           0        2.399351    1.056952   -2.076060
     28          1           0        3.139550    0.904467   -1.282964
     29          6           0        2.817729    2.024486   -3.150659
     30          1           0        3.815016    1.750579   -3.518564
     31          1           0        2.119563    2.058883   -3.989572
     32          1           0        2.909659    3.035676   -2.730768
     33          6           0       -0.546709   -1.187955    2.604969
     34          1           0       -0.573072   -0.193982    3.066760
     35          1           0       -1.549759   -1.374041    2.201389
     36          1           0       -0.365930   -1.921386    3.397472
     37          6           0        0.945181    2.285571    1.621122
     38          1           0        1.821311    2.254120    0.961629
     39          1           0        0.891503    3.290352    2.052544
     40          1           0        1.140350    1.579423    2.436426
 ---------------------------------------------------------------------
                    Distance matrix (angstroms):
                    1          2          3          4          5
     1  C    0.000000
     2  C    1.403735   0.000000
     3  C    2.422033   1.391966   0.000000
     4  C    2.793112   2.412906   1.393592   0.000000
     5  C    2.438005   2.810455   2.431673   1.401597   0.000000
     6  C    1.412950   2.440210   2.809368   2.426973   1.409421
     7  H    2.153791   1.086317   2.159083   3.401916   3.896425
     8  H    3.406877   2.150771   1.087227   2.155101   3.415053
     9  H    3.880422   3.397400   2.152979   1.087311   2.152423
    10  C    2.515977   3.808012   4.310029   3.812476   2.534965
    11  C    3.370447   4.626065   5.141578   4.638005   3.391793
    12  C    3.400673   4.675171   5.192262   4.672391   3.410885
    13  C    4.630488   5.951364   6.518461   5.974879   4.665058
    14  C    4.648546   5.985949   6.552405   5.992486   4.667832
    15  C    5.151366   6.526172   7.119892   6.546960   5.184891
    16  H    5.415210   6.685524   7.252998   6.728963   5.470718
    17  H    5.460040   6.757440   7.319472   6.762950   5.478535
    18  H    6.208822   7.592920   8.206690   7.621864   6.250640
    19  N    3.432321   4.429692   4.865748   4.467611   3.481418
    20  C    4.612335   5.473637   5.714442   5.171468   4.242395
    21  H    5.371049   6.313764   6.478524   5.758441   4.696175
    22  C    5.348435   5.930860   6.080242   5.680651   5.060406
    23  H    5.865146   6.308159   6.215445   5.669047   5.156994
    24  H    6.233982   6.879360   7.121567   6.763528   6.097972
    25  H    4.888957   5.310555   5.534902   5.369301   4.946815
    26  N    1.410798   2.450574   3.716903   4.200902   3.715705
    27  C    2.364548   3.060020   4.398494   5.058865   4.697059
    28  H    2.283987   2.667005   3.891450   4.613793   4.430422
    29  C    3.862752   4.479005   5.837799   6.558358   6.180144
    30  H    4.386448   4.687837   6.028391   6.928847   6.755079
    31  H    4.337427   5.051424   6.432760   7.114646   6.651391
    32  H    4.398598   5.128280   6.418300   7.014304   6.526648
    33  C    3.832552   4.321874   3.809069   2.519688   1.511725
    34  H    4.195597   4.856784   4.491187   3.282773   2.176616
    35  H    4.208858   4.829413   4.434056   3.226436   2.168084
    36  H    4.596802   4.809599   3.996138   2.603905   2.159104
    37  C    3.601809   4.622727   5.048532   4.609066   3.601816
    38  H    3.182961   4.111282   4.734895   4.603290   3.820030
    39  H    4.664912   5.677427   6.098097   5.631446   4.624687
    40  H    3.679571   4.468921   4.592943   3.974619   3.073911
                    6          7          8          9         10
     6  C    0.000000
     7  H    3.419092   0.000000
     8  H    3.896555   2.487730   0.000000
     9  H    3.409325   4.300512   2.481170   0.000000
    10  C    1.500916   4.668075   5.397160   4.684517   0.000000
    11  C    2.514518   5.413442   6.199110   5.447380   1.412858
    12  C    2.536743   5.480313   6.258080   5.481454   1.409258
    13  C    3.807639   6.689137   7.584982   6.742322   2.441131
    14  C    3.813450   6.741737   7.627657   6.759707   2.426357
    15  C    4.311537   7.264003   8.206743   7.309606   2.810857
    16  H    4.667780   7.374455   8.289812   7.462954   3.420315
    17  H    4.686121   7.479747   8.371906   7.493716   3.408683
    18  H    5.398594   8.301381   9.293448   8.361312   3.897939
    19  N    2.814270   5.152322   5.827308   5.229905   2.423257
    20  C    3.891272   6.208945   6.602425   5.751373   3.486756
    21  H    4.446856   7.120924   7.397189   6.248311   3.785580
    22  C    4.862837   6.540375   6.801295   6.156117   4.779812
    23  H    5.255359   6.985846   6.856811   5.954686   5.300650
    24  H    5.795064   7.421717   7.839907   7.254184   5.540621
    25  H    4.677936   5.793084   6.177366   5.911921   4.846121
    26  N    2.427546   2.675658   4.596548   5.287865   2.826708
    27  C    3.460655   2.943952   5.144803   6.131912   3.787892
    28  H    3.397310   2.559473   4.562989   5.636311   3.997551
    29  C    4.902366   4.154139   6.500112   7.626986   4.990945
    30  H    5.580489   4.130633   6.530373   7.964509   5.880564
    31  H    5.309408   4.734698   7.124144   8.198773   5.227757
    32  H    5.249531   4.923853   7.125619   8.065175   5.152848
    33  C    2.541732   5.407719   4.674005   2.705201   2.961673
    34  H    2.856157   5.927856   5.390684   3.512347   2.896446
    35  H    2.886674   5.889260   5.314794   3.431985   2.977047
    36  H    3.445643   5.876014   4.666259   2.325987   4.042714
    37  C    2.968027   5.379214   6.019285   5.355968   2.543367
    38  H    3.005462   4.704120   5.647811   5.451655   2.899358
    39  H    4.047632   6.385940   7.038747   6.309686   3.446129
    40  H    2.884780   5.328128   5.506867   4.571722   2.849266
                   11         12         13         14         15
    11  C    0.000000
    12  C    2.437153   0.000000
    13  C    1.403525   2.811166   0.000000
    14  C    2.790599   1.402001   2.411585   0.000000
    15  C    2.421619   2.433430   1.391883   1.393468   0.000000
    16  H    2.154829   3.896987   1.086344   3.400127   2.157862
    17  H    3.878001   2.152387   3.395944   1.087403   2.152063
    18  H    3.407107   3.416281   2.151700   2.154890   1.087173
    19  N    1.411866   3.713879   2.457606   4.201713   3.723025
    20  C    2.327309   4.687585   2.927070   4.986993   4.276528
    21  H    2.573643   4.770931   2.738992   4.834487   3.985107
    22  C    3.727287   6.072409   4.361926   6.456389   5.736428
    23  H    4.370749   6.582559   5.045080   7.022455   6.367184
    24  H    4.334394   6.758074   4.682801   6.961228   6.062419
    25  H    3.967477   6.213346   4.806117   6.757206   6.167014
    26  N    3.426153   3.524087   4.436939   4.512261   4.896054
    27  C    4.504495   4.113525   5.338674   5.019394   5.561024
    28  H    4.971121   4.213252   5.907722   5.294057   6.043702
    29  C    5.559528   5.105879   6.139203   5.741891   6.220368
    30  H    6.505276   6.038657   7.175323   6.765783   7.292219
    31  H    5.523743   5.443195   5.968221   5.901390   6.144295
    32  H    5.823068   4.961983   6.242597   5.463476   6.076305
    33  C    3.585047   3.593910   4.600380   4.592293   5.027050
    34  H    3.686717   3.079922   4.472043   3.974736   4.593560
    35  H    3.142214   3.786043   4.059969   4.556086   4.681821
    36  H    4.642005   4.624749   5.648651   5.620191   6.075484
    37  C    3.833131   1.511875   4.322749   2.519404   3.809875
    38  H    4.220113   2.169647   4.835538   3.221777   4.434086
    39  H    4.595629   2.159240   4.808923   2.603697   3.995780
    40  H    4.188936   2.175856   4.854762   3.286824   4.493805
                   16         17         18         19         20
    16  H    0.000000
    17  H    4.298287   0.000000
    18  H    2.487464   2.479625   0.000000
    19  N    2.687426   5.289018   4.605160   0.000000
    20  C    2.760566   6.055645   4.994925   1.275411   0.000000
    21  H    2.431368   5.841425   4.559917   2.076794   1.101735
    22  C    4.041316   7.532249   6.410610   2.426093   1.496152
    23  H    4.776142   8.081504   7.048817   3.153400   2.144240
    24  H    4.116237   8.015044   6.587255   3.143064   2.141978
    25  H    4.608339   7.844419   6.923347   2.558060   2.141904
    26  N    5.146243   5.284492   5.857732   3.595185   4.851016
    27  C    6.074349   5.595250   6.438889   4.820387   6.081238
    28  H    6.743421   5.789728   6.971530   5.331818   6.592336
    29  C    6.782900   6.161918   6.935426   5.931914   7.161625
    30  H    7.813590   7.163559   8.026325   6.765700   7.989264
    31  H    6.460187   6.379958   6.771501   5.803316   6.960689
    32  H    6.954395   5.697809   6.708272   6.425474   7.665220
    33  C    5.358971   5.340635   5.997560   3.829438   4.253701
    34  H    5.334675   4.569748   5.507369   4.297923   4.793364
    35  H    4.657926   5.405958   5.594605   3.229279   3.389188
    36  H    6.355252   6.302715   7.014992   4.740965   5.022955
    37  C    5.408457   2.703679   4.673626   4.966345   5.993184
    38  H    5.894582   3.419843   5.310255   5.215004   6.363634
    39  H    5.875042   2.325112   4.664712   5.843219   6.814024
    40  H    5.926589   3.520246   5.394988   5.170701   6.113483
                   21         22         23         24         25
    21  H    0.000000
    22  C    2.218008   0.000000
    23  H    2.563935   1.098390   0.000000
    24  H    2.573676   1.098758   1.761578   0.000000
    25  H    3.108831   1.093001   1.788099   1.787078   0.000000
    26  N    5.625925   5.614288   6.343200   6.320918   5.122810
    27  C    6.821990   6.848172   7.605038   7.504643   6.323125
    28  H    7.310234   7.374004   8.018748   8.135006   6.848977
    29  C    7.875652   7.907689   8.761795   8.427805   7.370543
    30  H    8.768676   8.621659   9.446468   9.167465   7.985742
    31  H    7.680272   7.638079   8.573401   8.029954   7.105232
    32  H    8.265777   8.559690   9.405971   9.075490   8.124643
    33  C    4.362408   5.186271   5.086096   6.178653   5.374081
    34  H    4.744511   5.916402   5.898234   6.836861   6.179040
    35  H    3.373094   4.334441   4.187638   5.275534   4.690041
    36  H    5.111811   5.764963   5.477748   6.784314   5.940207
    37  C    6.137667   7.300222   7.734656   8.077062   7.334409
    38  H    6.672127   7.571554   8.078594   8.357127   7.451781
    39  H    6.838312   8.185672   8.625441   8.906252   8.289839
    40  H    6.250283   7.352554   7.642451   8.220209   7.392236
                   26         27         28         29         30
    26  N    0.000000
    27  C    1.275215   0.000000
    28  H    1.847892   1.095512   0.000000
    29  C    2.638544   1.505299   2.201430   0.000000
    30  H    3.323381   2.136830   2.483961   1.097707   0.000000
    31  H    2.964766   2.177998   3.114286   1.091968   1.786466
    32  H    3.266879   2.145788   2.586704   1.098755   1.758342
    33  C    4.967940   5.969163   5.751762   7.400437   8.072006
    34  H    5.194779   6.070316   5.823251   7.421282   8.148811
    35  H    5.191821   6.308864   6.270721   7.698659   8.441677
    36  H    5.845632   6.817392   6.494638   8.281522   8.876665
    37  C    3.893338   4.158518   3.893125   5.132688   5.910883
    38  H    3.315897   3.315855   2.932152   4.237510   4.929558
    39  H    4.821434   4.930218   4.676728   5.690877   6.477273
    40  H    4.333776   4.713872   4.276240   5.850401   6.530316
                   31         32         33         34         35
    31  H    0.000000
    32  H    1.778473   0.000000
    33  C    7.819139   7.632537   0.000000
    34  H    7.881466   7.494761   1.096325   0.000000
    35  H    7.973512   7.978608   1.097093   1.759353   0.000000
    36  H    8.751494   8.535647   1.094835   1.770933   1.769647
    37  C    5.736763   4.833299   3.906286   3.247021   4.467012
    38  H    4.964017   3.927993   4.489540   4.019683   5.105357
    39  H    6.287433   5.197873   4.735912   3.913336   5.266733
    40  H    6.517837   5.652523   3.245452   2.545211   4.001859
                   36         37         38         39         40
    36  H    0.000000
    37  C    4.751097   0.000000
    38  H    5.305865   1.097052   0.000000
    39  H    5.527403   1.094802   1.768733   0.000000
    40  H    3.930414   1.096110   1.758963   1.771036   0.000000
 Stoichiometry    C18H20N2
 Framework group  C1[X(C18H20N2)]
 Deg. of freedom   114
 Full point group                 C1      NOp   1
 Largest Abelian subgroup         C1      NOp   1
 Largest concise Abelian subgroup C1      NOp   1
                         Standard orientation:                         
 ---------------------------------------------------------------------
 Center     Atomic      Atomic             Coordinates (Angstroms)
 Number     Number       Type             X           Y           Z
 ---------------------------------------------------------------------
      1          6           0        1.546331   -0.661882   -0.397085
      2          6           0        2.373912   -1.795236   -0.430108
      3          6           0        2.122419   -2.867573    0.421018
      4          6           0        1.050823   -2.815996    1.310468
      5          6           0        0.203270   -1.700490    1.352585
      6          6           0        0.444909   -0.614976    0.486712
      7          1           0        3.192005   -1.833639   -1.143784
      8          1           0        2.763916   -3.744835    0.390124
      9          1           0        0.856505   -3.654861    1.974388
     10          6           0       -0.447356    0.591926    0.487968
     11          6           0       -1.569821    0.622155   -0.369543
     12          6           0       -0.195753    1.686947    1.338635
     13          6           0       -2.407758    1.747806   -0.395144
     14          6           0       -1.054941    2.794317    1.304987
     15          6           0       -2.147057    2.830152    0.440261
     16          1           0       -3.237682    1.777368   -1.095497
     17          1           0       -0.852881    3.641264    1.956369
     18          1           0       -2.792971    3.704235    0.413441
     19          7           0       -1.776857   -0.474034   -1.234917
     20          6           0       -2.949353   -0.952690   -1.385969
     21          1           0       -3.807877   -0.569112   -0.811841
     22          6           0       -3.233074   -2.066224   -2.344101
     23          1           0       -3.675246   -2.923402   -1.818563
     24          1           0       -3.968001   -1.745530   -3.095305
     25          1           0       -2.317075   -2.383769   -2.848839
     26          7           0        1.712241    0.388251   -1.324472
     27          6           0        2.786053    1.068427   -1.426749
     28          1           0        3.395222    0.661738   -0.612093
     29          6           0        3.440960    2.173043   -2.212143
     30          1           0        4.444092    1.853246   -2.522654
     31          1           0        2.866981    2.469111   -3.092646
     32          1           0        3.581441    3.055952   -1.573393
     33          6           0       -0.969342   -1.686603    2.306577
     34          1           0       -0.952793   -0.813624    2.969573
     35          1           0       -1.924253   -1.654096    1.767410
     36          1           0       -0.972029   -2.584088    2.933616
     37          6           0        0.992683    1.691032    2.273177
     38          1           0        1.940086    1.681967    1.720123
     39          1           0        0.987437    2.584270    2.906177
     40          1           0        1.004013    0.813470    2.929845
 ---------------------------------------------------------------------
 Rotational constants (GHZ):           0.3594515           0.3149569           0.2613524
 Standard basis: 6-31G(d) (6D, 7F)
 There are   340 symmetry adapted cartesian basis functions of A   symmetry.
 There are   340 symmetry adapted basis functions of A   symmetry.
   340 basis functions,   640 primitive gaussians,   340 cartesian basis functions
    71 alpha electrons       71 beta electrons
       nuclear repulsion energy      1503.3900929823 Hartrees.
 NAtoms=   40 NActive=   40 NUniq=   40 SFac= 1.00D+00 NAtFMM=   60 NAOKFM=F Big=F
 Integral buffers will be    131072 words long.
 Raffenetti 2 integral format.
 Two-electron integral symmetry is turned on.
 ------------------------------------------------------------------------------
 Polarizable Continuum Model (PCM)
 =================================
 Model                : PCM.
 Atomic radii         : SMD-Coulomb.
 Polarization charges : Total charges.
 Charge compensation  : None.
 Solution method      : On-the-fly selection.
 Cavity type          : VdW (van der Waals Surface) (Alpha=1.000).
 Cavity algorithm     : GePol (No added spheres)
                        Default sphere list used, NSphG=   40.
                        Lebedev-Laikov grids with approx.  5.0 points / Ang**2.
                        Smoothing algorithm: York/Karplus (Gamma=1.0000).
                        Polarization charges: spherical gaussians, with
                                              point-specific exponents (IZeta= 3).
                        Self-potential: point-specific (ISelfS= 7).
                        Self-field    : sphere-specific E.n sum rule (ISelfD= 2).
 1st derivatives      : Analytical E(r).r(x)/FMM algorithm (CHGder, D1EAlg=3).
                        Cavity 1st derivative terms included.
 Solvent              : Toluene, Eps=   2.374100 Eps(inf)=   2.238315
 ------------------------------------------------------------------------------
 ------------------------------------------------------------------------------
 Atomic radii for non-electrostatic terms: SMD-CDS.
 ------------------------------------------------------------------------------
 Nuclear repulsion after PCM non-electrostatic terms =     1503.3800827152 Hartrees.
 One-electron integrals computed using PRISM.
 NBasis=   340 RedAO= T EigKep=  2.81D-04  NBF=   340
 NBsUse=   340 1.00D-06 EigRej= -1.00D+00 NBFU=   340
 ExpMin= 1.61D-01 ExpMax= 4.17D+03 ExpMxC= 6.27D+02 IAcc=3 IRadAn=         5 AccDes= 0.00D+00
 Harris functional with IExCor=  402 and IRadAn=       5 diagonalized for initial guess.
 HarFok:  IExCor=  402 AccDes= 0.00D+00 IRadAn=         5 IDoV= 1 UseB2=F ITyADJ=14
 ICtDFT=  3500011 ScaDFX=  1.000000  1.000000  1.000000  1.000000
 FoFCou: FMM=F IPFlag=           0 FMFlag=      100000 FMFlg1=           0
         NFxFlg=           0 DoJE=T BraDBF=F KetDBF=T FulRan=T
         wScrn=  0.000000 ICntrl=       500 IOpCl=  0 I1Cent=   200000004 NGrid=           0
         NMat0=    1 NMatS0=      1 NMatT0=    0 NMatD0=    1 NMtDS0=    0 NMtDT0=    0
 Petite list used in FoFCou.
 Requested convergence on RMS density matrix=1.00D-08 within 128 cycles.
 Requested convergence on MAX density matrix=1.00D-06.
 Requested convergence on             energy=1.00D-06.
 No special actions if energy rises.
 Inv3:  Mode=1 IEnd=    27234507.
 Iteration    1 A*A^-1 deviation from unit magnitude is 6.00D-15 for   2992.
 Iteration    1 A*A^-1 deviation from orthogonality  is 3.04D-15 for   1133     42.
 Iteration    1 A^-1*A deviation from unit magnitude is 6.00D-15 for   2992.
 Iteration    1 A^-1*A deviation from orthogonality  is 1.77D-15 for   2979   1987.
 Error on total polarization charges =  0.03307
 SCF Done:  E(RB3LYP) =  -807.444331714     A.U. after   13 cycles
            NFock= 13  Conv=0.51D-08     -V/T= 2.0099
 SMD-CDS (non-electrostatic) energy       (kcal/mol) =      -6.28
 (included in total energy above)

 **********************************************************************

            Population analysis using the SCF Density.

 **********************************************************************

 Orbital symmetries:
       Occupied  (A) (A) (A) (A) (A) (A) (A) (A) (A) (A) (A) (A)
                 (A) (A) (A) (A) (A) (A) (A) (A) (A) (A) (A) (A)
                 (A) (A) (A) (A) (A) (A) (A) (A) (A) (A) (A) (A)
                 (A) (A) (A) (A) (A) (A) (A) (A) (A) (A) (A) (A)
                 (A) (A) (A) (A) (A) (A) (A) (A) (A) (A) (A) (A)
                 (A) (A) (A) (A) (A) (A) (A) (A) (A) (A) (A)
       Virtual   (A) (A) (A) (A) (A) (A) (A) (A) (A) (A) (A) (A)
                 (A) (A) (A) (A) (A) (A) (A) (A) (A) (A) (A) (A)
                 (A) (A) (A) (A) (A) (A) (A) (A) (A) (A) (A) (A)
                 (A) (A) (A) (A) (A) (A) (A) (A) (A) (A) (A) (A)
                 (A) (A) (A) (A) (A) (A) (A) (A) (A) (A) (A) (A)
                 (A) (A) (A) (A) (A) (A) (A) (A) (A) (A) (A) (A)
                 (A) (A) (A) (A) (A) (A) (A) (A) (A) (A) (A) (A)
                 (A) (A) (A) (A) (A) (A) (A) (A) (A) (A) (A) (A)
                 (A) (A) (A) (A) (A) (A) (A) (A) (A) (A) (A) (A)
                 (A) (A) (A) (A) (A) (A) (A) (A) (A) (A) (A) (A)
                 (A) (A) (A) (A) (A) (A) (A) (A) (A) (A) (A) (A)
                 (A) (A) (A) (A) (A) (A) (A) (A) (A) (A) (A) (A)
                 (A) (A) (A) (A) (A) (A) (A) (A) (A) (A) (A) (A)
                 (A) (A) (A) (A) (A) (A) (A) (A) (A) (A) (A) (A)
                 (A) (A) (A) (A) (A) (A) (A) (A) (A) (A) (A) (A)
                 (A) (A) (A) (A) (A) (A) (A) (A) (A) (A) (A) (A)
                 (A) (A) (A) (A) (A) (A) (A) (A) (A) (A) (A) (A)
                 (A) (A) (A) (A) (A) (A) (A) (A) (A) (A) (A) (A)
                 (A) (A) (A) (A) (A) (A) (A) (A) (A) (A) (A) (A)
                 (A) (A) (A) (A) (A) (A) (A) (A) (A) (A) (A) (A)
                 (A) (A) (A) (A) (A) (A) (A) (A) (A) (A) (A) (A)
                 (A) (A) (A) (A) (A) (A) (A) (A) (A) (A) (A) (A)
                 (A) (A) (A) (A) (A)
 The electronic state is 1-A.
 Alpha  occ. eigenvalues --  -14.32513 -14.32420 -10.23276 -10.22947 -10.21381
 Alpha  occ. eigenvalues --  -10.21139 -10.19468 -10.19004 -10.18915 -10.18543
 Alpha  occ. eigenvalues --  -10.18499 -10.18112 -10.18017 -10.17833 -10.17827
 Alpha  occ. eigenvalues --  -10.17770 -10.17601 -10.17422 -10.17274 -10.17198
 Alpha  occ. eigenvalues --   -0.92875  -0.92369  -0.85008  -0.83321  -0.77002
 Alpha  occ. eigenvalues --   -0.76231  -0.76145  -0.74040  -0.72153  -0.69974
 Alpha  occ. eigenvalues --   -0.67718  -0.67002  -0.61670  -0.60435  -0.59735
 Alpha  occ. eigenvalues --   -0.56294  -0.53919  -0.53373  -0.50997  -0.49671
 Alpha  occ. eigenvalues --   -0.47797  -0.46567  -0.46396  -0.45368  -0.43251
 Alpha  occ. eigenvalues --   -0.42210  -0.42111  -0.41819  -0.41190  -0.40950
 Alpha  occ. eigenvalues --   -0.40668  -0.39949  -0.39625  -0.39261  -0.38313
 Alpha  occ. eigenvalues --   -0.37927  -0.37791  -0.35796  -0.35200  -0.34790
 Alpha  occ. eigenvalues --   -0.34453  -0.33319  -0.32528  -0.30448  -0.30059
 Alpha  occ. eigenvalues --   -0.26476  -0.25470  -0.23271  -0.23017  -0.21548
 Alpha  occ. eigenvalues --   -0.20238
 Alpha virt. eigenvalues --   -0.02097  -0.01090   0.00562   0.00867   0.03087
 Alpha virt. eigenvalues --    0.04033   0.10128   0.10984   0.11387   0.11990
 Alpha virt. eigenvalues --    0.12605   0.14113   0.14579   0.14934   0.15087
 Alpha virt. eigenvalues --    0.15648   0.15847   0.16547   0.17195   0.17786
 Alpha virt. eigenvalues --    0.18229   0.18391   0.18987   0.19301   0.19842
 Alpha virt. eigenvalues --    0.20486   0.21467   0.21885   0.23244   0.23922
 Alpha virt. eigenvalues --    0.25133   0.25886   0.26969   0.28326   0.30503
 Alpha virt. eigenvalues --    0.30710   0.33471   0.33743   0.36865   0.37149
 Alpha virt. eigenvalues --    0.38049   0.38213   0.38834   0.41455   0.43716
 Alpha virt. eigenvalues --    0.47967   0.49140   0.50549   0.51757   0.52048
 Alpha virt. eigenvalues --    0.52889   0.53317   0.54198   0.54267   0.54534
 Alpha virt. eigenvalues --    0.55970   0.56187   0.56523   0.56828   0.57806
 Alpha virt. eigenvalues --    0.58151   0.58510   0.58930   0.59590   0.60414
 Alpha virt. eigenvalues --    0.60709   0.61271   0.61840   0.62634   0.63240
 Alpha virt. eigenvalues --    0.64216   0.64700   0.65142   0.65403   0.66128
 Alpha virt. eigenvalues --    0.66302   0.68760   0.69437   0.69962   0.71195
 Alpha virt. eigenvalues --    0.72699   0.73895   0.74119   0.75075   0.75808
 Alpha virt. eigenvalues --    0.76949   0.77347   0.77962   0.78495   0.80142
 Alpha virt. eigenvalues --    0.82733   0.83262   0.83538   0.84032   0.84534
 Alpha virt. eigenvalues --    0.84809   0.85287   0.86640   0.86840   0.87860
 Alpha virt. eigenvalues --    0.88522   0.89733   0.90089   0.90556   0.90968
 Alpha virt. eigenvalues --    0.91658   0.92135   0.92577   0.93658   0.94121
 Alpha virt. eigenvalues --    0.94351   0.96088   0.96217   0.96937   0.97434
 Alpha virt. eigenvalues --    0.98106   0.98672   0.99336   1.01540   1.03183
 Alpha virt. eigenvalues --    1.03275   1.04100   1.06380   1.07497   1.08520
 Alpha virt. eigenvalues --    1.11085   1.12641   1.14471   1.15188   1.15406
 Alpha virt. eigenvalues --    1.17394   1.21685   1.22536   1.24162   1.25256
 Alpha virt. eigenvalues --    1.25576   1.26631   1.28035   1.29992   1.32986
 Alpha virt. eigenvalues --    1.34667   1.39787   1.40600   1.42091   1.42889
 Alpha virt. eigenvalues --    1.44269   1.45081   1.46353   1.47484   1.48843
 Alpha virt. eigenvalues --    1.48980   1.49897   1.50698   1.54091   1.55803
 Alpha virt. eigenvalues --    1.58829   1.59690   1.61562   1.64448   1.65671
 Alpha virt. eigenvalues --    1.67351   1.70233   1.73656   1.74626   1.78121
 Alpha virt. eigenvalues --    1.79550   1.80083   1.81331   1.81932   1.83991
 Alpha virt. eigenvalues --    1.85982   1.87438   1.88876   1.89389   1.89560
 Alpha virt. eigenvalues --    1.90549   1.91217   1.91307   1.93068   1.94334
 Alpha virt. eigenvalues --    1.95504   1.96213   1.97672   1.98623   2.01346
 Alpha virt. eigenvalues --    2.02672   2.03506   2.05130   2.10155   2.10433
 Alpha virt. eigenvalues --    2.10863   2.11345   2.14240   2.15540   2.15978
 Alpha virt. eigenvalues --    2.16889   2.20977   2.21807   2.22615   2.23393
 Alpha virt. eigenvalues --    2.23823   2.24706   2.26328   2.26664   2.28705
 Alpha virt. eigenvalues --    2.29379   2.30330   2.30924   2.31544   2.32694
 Alpha virt. eigenvalues --    2.33445   2.34231   2.35740   2.37940   2.38272
 Alpha virt. eigenvalues --    2.40345   2.43789   2.45503   2.46904   2.48401
 Alpha virt. eigenvalues --    2.52534   2.53514   2.55018   2.57681   2.61615
 Alpha virt. eigenvalues --    2.62759   2.63354   2.66207   2.68072   2.68942
 Alpha virt. eigenvalues --    2.70084   2.73912   2.76180   2.78850   2.79296
 Alpha virt. eigenvalues --    2.80781   2.82241   2.83598   2.85121   2.89914
 Alpha virt. eigenvalues --    2.96128   2.97689   3.00846   3.06721   3.12835
 Alpha virt. eigenvalues --    3.19415   3.23048   3.41471   3.46574   4.05837
 Alpha virt. eigenvalues --    4.07622   4.09269   4.10910   4.12224   4.13952
 Alpha virt. eigenvalues --    4.15522   4.16977   4.20192   4.24099   4.31391
 Alpha virt. eigenvalues --    4.31933   4.36491   4.39464   4.43849   4.45012
 Alpha virt. eigenvalues --    4.47453   4.49029   4.77394   4.84640
          Condensed to atoms (all electrons):
               1          2          3          4          5          6
     1  C    4.741891   0.467578   0.000764  -0.058417  -0.003484   0.457944
     2  C    0.467578   5.088531   0.491952  -0.028404  -0.052246  -0.042639
     3  C    0.000764   0.491952   4.926374   0.505662  -0.014299  -0.048759
     4  C   -0.058417  -0.028404   0.505662   5.024424   0.516688  -0.009746
     5  C   -0.003484  -0.052246  -0.014299   0.516688   4.714169   0.516380
     6  C    0.457944  -0.042639  -0.048759  -0.009746   0.516380   5.125357
     7  H   -0.040045   0.351994  -0.041395   0.004362   0.000684   0.005035
     8  H    0.002612  -0.036416   0.353970  -0.036583   0.002989   0.001382
     9  H    0.000643   0.004613  -0.046386   0.354119  -0.037466   0.005371
    10  C   -0.068991   0.009336  -0.000777   0.008876  -0.072203   0.298652
    11  C   -0.004419   0.000082   0.000030   0.000062  -0.004553  -0.069614
    12  C   -0.004238   0.000004   0.000043   0.000001  -0.003357  -0.073558
    13  C    0.000060   0.000002  -0.000000   0.000005   0.000011   0.009866
    14  C    0.000044   0.000005  -0.000000   0.000004   0.000015   0.008905
    15  C    0.000027  -0.000000   0.000000   0.000000   0.000042  -0.000829
    16  H   -0.000001  -0.000000   0.000000  -0.000000  -0.000003  -0.000149
    17  H   -0.000002  -0.000000   0.000000  -0.000000  -0.000002  -0.000141
    18  H    0.000000   0.000000  -0.000000   0.000000   0.000000   0.000015
    19  N    0.001129  -0.000180   0.000018  -0.000082   0.001248  -0.006093
    20  C    0.000070   0.000009   0.000000  -0.000009   0.000243  -0.000286
    21  H   -0.000003  -0.000000   0.000000   0.000001  -0.000044   0.000240
    22  C   -0.000002   0.000001  -0.000001  -0.000000   0.000027  -0.000115
    23  H    0.000000  -0.000000  -0.000000   0.000001  -0.000005   0.000001
    24  H   -0.000000   0.000000   0.000000  -0.000000   0.000000   0.000001
    25  H    0.000012  -0.000001   0.000001   0.000000  -0.000002   0.000043
    26  N    0.308969  -0.083927   0.006276   0.000078   0.005263  -0.072979
    27  C   -0.037524  -0.013764   0.000205   0.000025  -0.000036   0.000562
    28  H   -0.008160   0.020490  -0.000991   0.000002  -0.000333   0.000636
    29  C    0.002192  -0.000006   0.000009  -0.000000   0.000005  -0.000048
    30  H   -0.000089   0.000017  -0.000001   0.000000  -0.000000  -0.000005
    31  H    0.000218   0.000007  -0.000000   0.000000  -0.000000  -0.000013
    32  H   -0.000144   0.000001   0.000000  -0.000000  -0.000000   0.000025
    33  C    0.008652  -0.000032   0.008335  -0.069769   0.353325  -0.062751
    34  H   -0.000133   0.000029  -0.000195   0.001606  -0.023527  -0.006068
    35  H   -0.000162   0.000040  -0.000211   0.000555  -0.023303  -0.004234
    36  H   -0.000093   0.000001   0.000222  -0.002962  -0.029292   0.003737
    37  C    0.001203  -0.000132  -0.000008  -0.000132   0.000536  -0.015361
    38  H    0.001696   0.000166  -0.000023  -0.000005  -0.000276   0.001303
    39  H    0.000032   0.000000  -0.000001  -0.000001   0.000049   0.000575
    40  H   -0.000271  -0.000024  -0.000003   0.000085   0.002809   0.002993
               7          8          9         10         11         12
     1  C   -0.040045   0.002612   0.000643  -0.068991  -0.004419  -0.004238
     2  C    0.351994  -0.036416   0.004613   0.009336   0.000082   0.000004
     3  C   -0.041395   0.353970  -0.046386  -0.000777   0.000030   0.000043
     4  C    0.004362  -0.036583   0.354119   0.008876   0.000062   0.000001
     5  C    0.000684   0.002989  -0.037466  -0.072203  -0.004553  -0.003357
     6  C    0.005035   0.001382   0.005371   0.298652  -0.069614  -0.073558
     7  H    0.586976  -0.005043  -0.000182  -0.000146  -0.000002  -0.000002
     8  H   -0.005043   0.583894  -0.004795   0.000014  -0.000000   0.000000
     9  H   -0.000182  -0.004795   0.598441  -0.000142  -0.000003  -0.000002
    10  C   -0.000146   0.000014  -0.000142   5.139729   0.458740   0.514779
    11  C   -0.000002  -0.000000  -0.000003   0.458740   4.725940  -0.003198
    12  C   -0.000002   0.000000  -0.000002   0.514779  -0.003198   4.719976
    13  C   -0.000000   0.000000  -0.000000  -0.046932   0.467584  -0.053964
    14  C   -0.000000   0.000000  -0.000000  -0.009665  -0.059136   0.516289
    15  C    0.000000  -0.000000   0.000000  -0.047836   0.003167  -0.013853
    16  H    0.000000  -0.000000   0.000000   0.004856  -0.039819   0.000692
    17  H    0.000000  -0.000000   0.000000   0.005341   0.000629  -0.037661
    18  H   -0.000000  -0.000000  -0.000000   0.001403   0.002509   0.002964
    19  N    0.000002  -0.000000  -0.000001  -0.073477   0.308412   0.005528
    20  C   -0.000000   0.000000   0.000000   0.003481  -0.048800  -0.000105
    21  H    0.000000   0.000000  -0.000000   0.000084  -0.008561  -0.000119
    22  C    0.000000  -0.000000   0.000000  -0.000132   0.004544   0.000006
    23  H    0.000000   0.000000  -0.000000   0.000022  -0.000205  -0.000000
    24  H   -0.000000   0.000000   0.000000  -0.000005  -0.000078  -0.000000
    25  H    0.000000   0.000000  -0.000000  -0.000059   0.000498  -0.000001
    26  N   -0.007348  -0.000115   0.000004  -0.007433   0.001634   0.000672
    27  C    0.004015  -0.000012   0.000000   0.000325   0.000164   0.000590
    28  H    0.004331   0.000019   0.000000   0.000702  -0.000009  -0.000213
    29  C   -0.000346  -0.000000   0.000000  -0.000084   0.000003   0.000027
    30  H    0.000017   0.000000  -0.000000   0.000000  -0.000000   0.000000
    31  H    0.000013   0.000000   0.000000   0.000010   0.000001  -0.000002
    32  H    0.000005  -0.000000  -0.000000   0.000000   0.000000  -0.000002
    33  C    0.000010  -0.000210  -0.010710  -0.015083   0.000925   0.000652
    34  H   -0.000000   0.000003   0.000153   0.002761  -0.000293   0.002685
    35  H   -0.000000   0.000003   0.000191   0.000761   0.001879  -0.000308
    36  H   -0.000000  -0.000009   0.007014   0.000577   0.000035   0.000048
    37  C    0.000001  -0.000000   0.000000  -0.062979   0.008606   0.353744
    38  H    0.000003   0.000000  -0.000001  -0.004258  -0.000219  -0.023191
    39  H    0.000000   0.000000   0.000000   0.003788  -0.000092  -0.029477
    40  H   -0.000001  -0.000000   0.000004  -0.005989  -0.000080  -0.023865
              13         14         15         16         17         18
     1  C    0.000060   0.000044   0.000027  -0.000001  -0.000002   0.000000
     2  C    0.000002   0.000005  -0.000000  -0.000000  -0.000000   0.000000
     3  C   -0.000000  -0.000000   0.000000   0.000000   0.000000  -0.000000
     4  C    0.000005   0.000004   0.000000  -0.000000  -0.000000   0.000000
     5  C    0.000011   0.000015   0.000042  -0.000003  -0.000002   0.000000
     6  C    0.009866   0.008905  -0.000829  -0.000149  -0.000141   0.000015
     7  H   -0.000000  -0.000000   0.000000   0.000000   0.000000  -0.000000
     8  H    0.000000   0.000000  -0.000000  -0.000000  -0.000000  -0.000000
     9  H   -0.000000  -0.000000   0.000000   0.000000   0.000000  -0.000000
    10  C   -0.046932  -0.009665  -0.047836   0.004856   0.005341   0.001403
    11  C    0.467584  -0.059136   0.003167  -0.039819   0.000629   0.002509
    12  C   -0.053964   0.516289  -0.013853   0.000692  -0.037661   0.002964
    13  C    5.108755  -0.026727   0.485471   0.351581   0.004667  -0.035901
    14  C   -0.026727   5.024700   0.503562   0.004315   0.354298  -0.036608
    15  C    0.485471   0.503562   4.933975  -0.042046  -0.046462   0.353526
    16  H    0.351581   0.004315  -0.042046   0.586944  -0.000184  -0.004901
    17  H    0.004667   0.354298  -0.046462  -0.000184   0.597856  -0.004801
    18  H   -0.035901  -0.036608   0.353526  -0.004901  -0.004801   0.583835
    19  N   -0.082934  -0.000001   0.006698  -0.008552   0.000004  -0.000118
    20  C   -0.014729   0.000005   0.000357   0.004484  -0.000000  -0.000012
    21  H    0.013503   0.000009  -0.000707   0.004981   0.000000   0.000023
    22  C    0.000084  -0.000000   0.000008  -0.000408  -0.000000  -0.000000
    23  H    0.000008  -0.000000   0.000000   0.000010  -0.000000  -0.000000
    24  H    0.000007   0.000000  -0.000001   0.000022  -0.000000   0.000000
    25  H    0.000030   0.000000  -0.000000   0.000012   0.000000   0.000000
    26  N   -0.000152  -0.000066   0.000005   0.000003  -0.000001  -0.000000
    27  C    0.000011  -0.000015   0.000001  -0.000000   0.000000   0.000000
    28  H   -0.000000   0.000006   0.000000   0.000000  -0.000000   0.000000
    29  C    0.000001  -0.000001  -0.000000   0.000000   0.000000   0.000000
    30  H    0.000000  -0.000000   0.000000  -0.000000   0.000000   0.000000
    31  H   -0.000000   0.000000   0.000000   0.000000  -0.000000   0.000000
    32  H   -0.000000   0.000001  -0.000000   0.000000  -0.000000   0.000000
    33  C   -0.000115  -0.000136  -0.000012   0.000001   0.000000  -0.000000
    34  H   -0.000022   0.000091  -0.000002  -0.000001   0.000004  -0.000000
    35  H    0.000125   0.000004  -0.000024   0.000003  -0.000001   0.000000
    36  H   -0.000000  -0.000001  -0.000001   0.000000   0.000000   0.000000
    37  C   -0.000068  -0.070121   0.008361   0.000010  -0.010687  -0.000208
    38  H    0.000042   0.000603  -0.000211  -0.000000   0.000201   0.000003
    39  H    0.000003  -0.002946   0.000219  -0.000000   0.006982  -0.000010
    40  H    0.000027   0.001634  -0.000192  -0.000000   0.000140   0.000003
              19         20         21         22         23         24
     1  C    0.001129   0.000070  -0.000003  -0.000002   0.000000  -0.000000
     2  C   -0.000180   0.000009  -0.000000   0.000001  -0.000000   0.000000
     3  C    0.000018   0.000000   0.000000  -0.000001  -0.000000   0.000000
     4  C   -0.000082  -0.000009   0.000001  -0.000000   0.000001  -0.000000
     5  C    0.001248   0.000243  -0.000044   0.000027  -0.000005   0.000000
     6  C   -0.006093  -0.000286   0.000240  -0.000115   0.000001   0.000001
     7  H    0.000002  -0.000000   0.000000   0.000000   0.000000  -0.000000
     8  H   -0.000000   0.000000   0.000000  -0.000000   0.000000   0.000000
     9  H   -0.000001   0.000000  -0.000000   0.000000  -0.000000   0.000000
    10  C   -0.073477   0.003481   0.000084  -0.000132   0.000022  -0.000005
    11  C    0.308412  -0.048800  -0.008561   0.004544  -0.000205  -0.000078
    12  C    0.005528  -0.000105  -0.000119   0.000006  -0.000000  -0.000000
    13  C   -0.082934  -0.014729   0.013503   0.000084   0.000008   0.000007
    14  C   -0.000001   0.000005   0.000009  -0.000000  -0.000000   0.000000
    15  C    0.006698   0.000357  -0.000707   0.000008   0.000000  -0.000001
    16  H   -0.008552   0.004484   0.004981  -0.000408   0.000010   0.000022
    17  H    0.000004  -0.000000   0.000000  -0.000000  -0.000000  -0.000000
    18  H   -0.000118  -0.000012   0.000023  -0.000000  -0.000000   0.000000
    19  N    6.825428   0.577692  -0.059209  -0.064989   0.000341   0.000427
    20  C    0.577692   4.768483   0.338099   0.357189  -0.025686  -0.027079
    21  H   -0.059209   0.338099   0.645253  -0.076189   0.002267   0.001648
    22  C   -0.064989   0.357189  -0.076189   5.206261   0.358902   0.360676
    23  H    0.000341  -0.025686   0.002267   0.358902   0.547393  -0.031366
    24  H    0.000427  -0.027079   0.001648   0.360676  -0.031366   0.547604
    25  H    0.006828  -0.030162   0.005460   0.359614  -0.022095  -0.022470
    26  N    0.000166   0.000065   0.000000  -0.000000   0.000000  -0.000000
    27  C    0.000087  -0.000001   0.000000  -0.000000   0.000000   0.000000
    28  H    0.000000   0.000000  -0.000000   0.000000  -0.000000  -0.000000
    29  C    0.000001  -0.000000   0.000000  -0.000000   0.000000   0.000000
    30  H    0.000000   0.000000  -0.000000   0.000000   0.000000  -0.000000
    31  H    0.000000   0.000000  -0.000000   0.000000  -0.000000  -0.000000
    32  H   -0.000000   0.000000   0.000000   0.000000  -0.000000   0.000000
    33  C   -0.001231  -0.000260  -0.000054  -0.000007   0.000008  -0.000000
    34  H    0.000020   0.000007  -0.000003   0.000000  -0.000000   0.000000
    35  H    0.001290   0.001887   0.000543  -0.000081  -0.000009   0.000002
    36  H    0.000009  -0.000010   0.000001  -0.000000   0.000000  -0.000000
    37  C   -0.000078   0.000001   0.000000  -0.000000   0.000000   0.000000
    38  H    0.000000  -0.000000  -0.000000  -0.000000  -0.000000   0.000000
    39  H    0.000001  -0.000000   0.000000   0.000000  -0.000000   0.000000
    40  H    0.000001   0.000000   0.000000   0.000000   0.000000  -0.000000
              25         26         27         28         29         30
     1  C    0.000012   0.308969  -0.037524  -0.008160   0.002192  -0.000089
     2  C   -0.000001  -0.083927  -0.013764   0.020490  -0.000006   0.000017
     3  C    0.000001   0.006276   0.000205  -0.000991   0.000009  -0.000001
     4  C    0.000000   0.000078   0.000025   0.000002  -0.000000   0.000000
     5  C   -0.000002   0.005263  -0.000036  -0.000333   0.000005  -0.000000
     6  C    0.000043  -0.072979   0.000562   0.000636  -0.000048  -0.000005
     7  H    0.000000  -0.007348   0.004015   0.004331  -0.000346   0.000017
     8  H    0.000000  -0.000115  -0.000012   0.000019  -0.000000   0.000000
     9  H   -0.000000   0.000004   0.000000   0.000000   0.000000  -0.000000
    10  C   -0.000059  -0.007433   0.000325   0.000702  -0.000084   0.000000
    11  C    0.000498   0.001634   0.000164  -0.000009   0.000003  -0.000000
    12  C   -0.000001   0.000672   0.000590  -0.000213   0.000027   0.000000
    13  C    0.000030  -0.000152   0.000011  -0.000000   0.000001   0.000000
    14  C    0.000000  -0.000066  -0.000015   0.000006  -0.000001  -0.000000
    15  C   -0.000000   0.000005   0.000001   0.000000  -0.000000   0.000000
    16  H    0.000012   0.000003  -0.000000   0.000000   0.000000  -0.000000
    17  H    0.000000  -0.000001   0.000000  -0.000000   0.000000   0.000000
    18  H    0.000000  -0.000000   0.000000   0.000000   0.000000   0.000000
    19  N    0.006828   0.000166   0.000087   0.000000   0.000001   0.000000
    20  C   -0.030162   0.000065  -0.000001   0.000000  -0.000000   0.000000
    21  H    0.005460   0.000000   0.000000  -0.000000   0.000000  -0.000000
    22  C    0.359614  -0.000000  -0.000000   0.000000  -0.000000   0.000000
    23  H   -0.022095   0.000000   0.000000  -0.000000   0.000000   0.000000
    24  H   -0.022470  -0.000000   0.000000  -0.000000   0.000000  -0.000000
    25  H    0.519749   0.000001   0.000000  -0.000000   0.000000   0.000000
    26  N    0.000001   6.902173   0.538263  -0.100415  -0.040001   0.000979
    27  C    0.000000   0.538263   4.764859   0.344207   0.350309  -0.024012
    28  H   -0.000000  -0.100415   0.344207   0.717619  -0.081769  -0.001785
    29  C    0.000000  -0.040001   0.350309  -0.081769   5.182927   0.369370
    30  H    0.000000   0.000979  -0.024012  -0.001785   0.369370   0.523504
    31  H    0.000000   0.002201  -0.026789   0.006396   0.350242  -0.024906
    32  H   -0.000000  -0.000349  -0.025250   0.000579   0.368201  -0.030045
    33  C   -0.000001  -0.000077  -0.000001  -0.000000  -0.000000   0.000000
    34  H    0.000000   0.000001  -0.000000   0.000000   0.000000  -0.000000
    35  H    0.000007   0.000000  -0.000000  -0.000000  -0.000000   0.000000
    36  H    0.000000   0.000001  -0.000000   0.000000   0.000000   0.000000
    37  C   -0.000000  -0.000794  -0.000238  -0.000256  -0.000002  -0.000000
    38  H    0.000000   0.000518   0.001553   0.001969  -0.000109   0.000002
    39  H    0.000000   0.000005  -0.000010   0.000007  -0.000000  -0.000000
    40  H    0.000000   0.000013   0.000017  -0.000010   0.000000  -0.000000
              31         32         33         34         35         36
     1  C    0.000218  -0.000144   0.008652  -0.000133  -0.000162  -0.000093
     2  C    0.000007   0.000001  -0.000032   0.000029   0.000040   0.000001
     3  C   -0.000000   0.000000   0.008335  -0.000195  -0.000211   0.000222
     4  C    0.000000  -0.000000  -0.069769   0.001606   0.000555  -0.002962
     5  C   -0.000000  -0.000000   0.353325  -0.023527  -0.023303  -0.029292
     6  C   -0.000013   0.000025  -0.062751  -0.006068  -0.004234   0.003737
     7  H    0.000013   0.000005   0.000010  -0.000000  -0.000000  -0.000000
     8  H    0.000000  -0.000000  -0.000210   0.000003   0.000003  -0.000009
     9  H    0.000000  -0.000000  -0.010710   0.000153   0.000191   0.007014
    10  C    0.000010   0.000000  -0.015083   0.002761   0.000761   0.000577
    11  C    0.000001   0.000000   0.000925  -0.000293   0.001879   0.000035
    12  C   -0.000002  -0.000002   0.000652   0.002685  -0.000308   0.000048
    13  C   -0.000000  -0.000000  -0.000115  -0.000022   0.000125  -0.000000
    14  C    0.000000   0.000001  -0.000136   0.000091   0.000004  -0.000001
    15  C    0.000000  -0.000000  -0.000012  -0.000002  -0.000024  -0.000001
    16  H    0.000000   0.000000   0.000001  -0.000001   0.000003   0.000000
    17  H   -0.000000  -0.000000   0.000000   0.000004  -0.000001   0.000000
    18  H    0.000000   0.000000  -0.000000  -0.000000   0.000000   0.000000
    19  N    0.000000  -0.000000  -0.001231   0.000020   0.001290   0.000009
    20  C    0.000000   0.000000  -0.000260   0.000007   0.001887  -0.000010
    21  H   -0.000000   0.000000  -0.000054  -0.000003   0.000543   0.000001
    22  C    0.000000   0.000000  -0.000007   0.000000  -0.000081  -0.000000
    23  H   -0.000000  -0.000000   0.000008  -0.000000  -0.000009   0.000000
    24  H   -0.000000   0.000000  -0.000000   0.000000   0.000002  -0.000000
    25  H    0.000000  -0.000000  -0.000001   0.000000   0.000007   0.000000
    26  N    0.002201  -0.000349  -0.000077   0.000001   0.000000   0.000001
    27  C   -0.026789  -0.025250  -0.000001  -0.000000  -0.000000  -0.000000
    28  H    0.006396   0.000579  -0.000000   0.000000  -0.000000   0.000000
    29  C    0.350242   0.368201  -0.000000   0.000000  -0.000000   0.000000
    30  H   -0.024906  -0.030045   0.000000  -0.000000   0.000000   0.000000
    31  H    0.535239  -0.023481  -0.000000  -0.000000   0.000000   0.000000
    32  H   -0.023481   0.518548   0.000000   0.000000  -0.000000  -0.000000
    33  C   -0.000000   0.000000   5.254767   0.358368   0.358361   0.361210
    34  H   -0.000000   0.000000   0.358368   0.554056  -0.032344  -0.027509
    35  H    0.000000  -0.000000   0.358361  -0.032344   0.554391  -0.027578
    36  H    0.000000  -0.000000   0.361210  -0.027509  -0.027578   0.558385
    37  C   -0.000001   0.000016  -0.001500   0.000622   0.000039   0.000008
    38  H    0.000004   0.000016   0.000040   0.000030  -0.000002   0.000001
    39  H    0.000000  -0.000000   0.000007  -0.000066   0.000001  -0.000000
    40  H    0.000000  -0.000000   0.000581   0.001479   0.000033  -0.000064
              37         38         39         40
     1  C    0.001203   0.001696   0.000032  -0.000271
     2  C   -0.000132   0.000166   0.000000  -0.000024
     3  C   -0.000008  -0.000023  -0.000001  -0.000003
     4  C   -0.000132  -0.000005  -0.000001   0.000085
     5  C    0.000536  -0.000276   0.000049   0.002809
     6  C   -0.015361   0.001303   0.000575   0.002993
     7  H    0.000001   0.000003   0.000000  -0.000001
     8  H   -0.000000   0.000000   0.000000  -0.000000
     9  H    0.000000  -0.000001   0.000000   0.000004
    10  C   -0.062979  -0.004258   0.003788  -0.005989
    11  C    0.008606  -0.000219  -0.000092  -0.000080
    12  C    0.353744  -0.023191  -0.029477  -0.023865
    13  C   -0.000068   0.000042   0.000003   0.000027
    14  C   -0.070121   0.000603  -0.002946   0.001634
    15  C    0.008361  -0.000211   0.000219  -0.000192
    16  H    0.000010  -0.000000  -0.000000  -0.000000
    17  H   -0.010687   0.000201   0.006982   0.000140
    18  H   -0.000208   0.000003  -0.000010   0.000003
    19  N   -0.000078   0.000000   0.000001   0.000001
    20  C    0.000001  -0.000000  -0.000000   0.000000
    21  H    0.000000  -0.000000   0.000000   0.000000
    22  C   -0.000000  -0.000000   0.000000   0.000000
    23  H    0.000000  -0.000000  -0.000000   0.000000
    24  H    0.000000   0.000000   0.000000  -0.000000
    25  H   -0.000000   0.000000   0.000000   0.000000
    26  N   -0.000794   0.000518   0.000005   0.000013
    27  C   -0.000238   0.001553  -0.000010   0.000017
    28  H   -0.000256   0.001969   0.000007  -0.000010
    29  C   -0.000002  -0.000109  -0.000000   0.000000
    30  H   -0.000000   0.000002  -0.000000  -0.000000
    31  H   -0.000001   0.000004   0.000000   0.000000
    32  H    0.000016   0.000016  -0.000000  -0.000000
    33  C   -0.001500   0.000040   0.000007   0.000581
    34  H    0.000622   0.000030  -0.000066   0.001479
    35  H    0.000039  -0.000002   0.000001   0.000033
    36  H    0.000008   0.000001  -0.000000  -0.000064
    37  C    5.255831   0.357452   0.360750   0.359126
    38  H    0.357452   0.554774  -0.027564  -0.032186
    39  H    0.360750  -0.027564   0.558912  -0.027389
    40  H    0.359126  -0.032186  -0.027389   0.551425
 Mulliken charges:
               1
     1  C    0.230440
     2  C   -0.177088
     3  C   -0.140813
     4  C   -0.210444
     5  C    0.149950
     6  C   -0.025635
     7  H    0.137064
     8  H    0.138297
     9  H    0.129133
    10  C   -0.038044
    11  C    0.253637
    12  C    0.148416
    13  C   -0.180295
    14  C   -0.209066
    15  C   -0.143242
    16  H    0.138150
    17  H    0.129819
    18  H    0.138279
    19  N   -0.438383
    20  C    0.095070
    21  H    0.132775
    22  C   -0.505388
    23  H    0.170413
    24  H    0.170613
    25  H    0.182538
    26  N   -0.453632
    27  C    0.122460
    28  H    0.096977
    29  C   -0.500918
    30  H    0.186952
    31  H    0.180861
    32  H    0.191879
    33  C   -0.543294
    34  H    0.168252
    35  H    0.168141
    36  H    0.156269
    37  C   -0.543743
    38  H    0.167670
    39  H    0.156225
    40  H    0.169706
 Sum of Mulliken charges =  -0.00000
 Mulliken charges with hydrogens summed into heavy atoms:
               1
     1  C    0.230440
     2  C   -0.040024
     3  C   -0.002516
     4  C   -0.081311
     5  C    0.149950
     6  C   -0.025635
    10  C   -0.038044
    11  C    0.253637
    12  C    0.148416
    13  C   -0.042145
    14  C   -0.079247
    15  C   -0.004963
    19  N   -0.438383
    20  C    0.227845
    22  C    0.018175
    26  N   -0.453632
    27  C    0.219437
    29  C    0.058774
    33  C   -0.050632
    37  C   -0.050142
 Electronic spatial extent (au):  <R**2>=           5289.0625
 Charge=             -0.0000 electrons
 Dipole moment (field-independent basis, Debye):
    X=              0.1117    Y=              0.6586    Z=              0.2915  Tot=              0.7289
 Quadrupole moment (field-independent basis, Debye-Ang):
   XX=            -96.9691   YY=           -107.5420   ZZ=           -114.8674
   XY=              6.2446   XZ=             -0.8736   YZ=             -1.0869
 Traceless Quadrupole moment (field-independent basis, Debye-Ang):
   XX=              9.4904   YY=             -1.0825   ZZ=             -8.4079
   XY=              6.2446   XZ=             -0.8736   YZ=             -1.0869
 Octapole moment (field-independent basis, Debye-Ang**2):
  XXX=              0.4251  YYY=              5.0753  ZZZ=             -8.5079  XYY=              6.4502
  XXY=              7.2980  XXZ=            -50.8076  XZZ=              1.6912  YZZ=              2.3097
  YYZ=              3.4200  XYZ=            -11.7240
 Hexadecapole moment (field-independent basis, Debye-Ang**3):
 XXXX=          -2783.2242 YYYY=          -2408.9604 ZZZZ=          -1621.2192 XXXY=             94.9865
 XXXZ=            -21.0073 YYYX=            -11.8998 YYYZ=             -8.0298 ZZZX=             -1.5373
 ZZZY=             -7.2406 XXYY=           -813.1340 XXZZ=           -721.2267 YYZZ=           -649.9804
 XXYZ=            -15.7030 YYXZ=            -12.7228 ZZXY=             51.0916
 N-N= 1.503380082715D+03 E-N=-4.878493191700D+03  KE= 7.995195595271D+02
 D1PCM: PCM CHGder 1st derivatives, ID1Alg=3 FixD1E=F DoIter=F DoCFld=F I1PDM=0.
 Calling FoFJK, ICntrl=      2127 FMM=F ISym2X=0 I1Cent= 0 IOpClX= 0 NMat=1 NMatS=1 NMatT=0.
 ***** Axes restored to original set *****
 -------------------------------------------------------------------
 Center     Atomic                   Forces (Hartrees/Bohr)
 Number     Number              X              Y              Z
 -------------------------------------------------------------------
      1        6          -0.000659656    0.002460117   -0.006407874
      2        6           0.001915971    0.003091128   -0.001605462
      3        6          -0.000191983    0.000106293    0.001500851
      4        6           0.001032376   -0.000496191   -0.000669481
      5        6          -0.000176312    0.001101526   -0.000697105
      6        6          -0.000585926    0.000441744    0.000758801
      7        1          -0.000214724    0.000034877   -0.000250407
      8        1          -0.000074941    0.000025649   -0.000099306
      9        1          -0.000071637   -0.000071388   -0.000085619
     10        6          -0.000032667   -0.000008996   -0.000278439
     11        6          -0.000102631   -0.000059242   -0.000043896
     12        6           0.000221980   -0.000040716    0.000209518
     13        6           0.000067590   -0.000092354   -0.000031437
     14        6          -0.000152232    0.000045713   -0.000050213
     15        6           0.000051035    0.000046191    0.000010734
     16        1           0.000032946   -0.000008246    0.000006397
     17        1           0.000049714   -0.000031230    0.000008582
     18        1          -0.000007911    0.000005756    0.000019565
     19        7          -0.000391567   -0.000130252    0.000213691
     20        6          -0.000021224    0.000030258    0.000009185
     21        1          -0.000044393   -0.000016517    0.000011455
     22        6          -0.000005185   -0.000009961   -0.000005290
     23        1          -0.000008290   -0.000004483    0.000000238
     24        1           0.000006754    0.000010133    0.000009614
     25        1           0.000035630    0.000048427   -0.000017139
     26        7          -0.038240195    0.007816938   -0.039751382
     27        6           0.033697613   -0.021549568    0.058243511
     28        1           0.029658382    0.019590651   -0.007627374
     29        6          -0.021124447   -0.008590638   -0.004402848
     30        1          -0.002022560   -0.002498461    0.001365283
     31        1          -0.001116306    0.000947796   -0.002401952
[...]
 11876,-0.00103724,-0.00324960,0.00472548,-0.05843093,-0.01605167,-0.10
 800744,0.00023206,0.00040850,-0.00059994,-0.00832874,-0.00050710,0.001
 28073,-0.00219094,-0.00205236,0.00564293,0.00032227,0.00021139,-0.0005
 9313,0.00252202,0.00017648,-0.00271609,0.00013788,-0.00007602,0.000192
 65,-0.00051134,0.00012979,-0.00003404,0.00005243,-0.00007164,-0.000184
 84,-0.00001778,-0.00001817,-0.00003101,0.00000633,-0.00004293,0.000060
 55,0.00000288,-0.00000167,-0.00000971,-0.00000375,0.00001751,0.0000101
 1,0.00000019,0.00000354,0.00000658,0.00017363,0.00028932,-0.00021087,-
 0.00019826,-0.00012704,-0.00023619,0.00010100,-0.00008481,-0.00002962,
 0.00001520,0.00003188,0.00003926,-0.00000492,0.00000089,0.00000881,0.0
 0000691,-0.00000418,0.00000508,0.00000726,0.00002868,-0.00002532,0.000
 08897,0.00003873,-0.00031036,0.00038066,0.00023965,0.00005619,-0.00001
 404,-0.00006425,-0.00005290,0.00001215,0.00004239,0.00000526,-0.023248
 65,0.00231142,0.53748031,-0.00001433,-0.00041454,0.00034605,0.00017239
 ,-0.00010020,-0.00000223,0.00005396,0.00003031,-0.00011017,-0.00012726
 ,0.00004979,0.00006850,0.00019402,-0.00032653,0.00008962,-0.00023690,-
 0.00006423,0.00042182,0.00001483,-0.00001531,-0.00000159,0.00000386,0.
 00001475,-0.00001109,0.00002602,-0.00001250,-0.00000307,0.00044340,0.0
 0183220,0.00029210,0.00003300,0.00066372,-0.00093231,-0.02405753,0.000
 67682,0.01334570,-0.00023913,-0.00013857,0.00005295,-0.00144886,-0.002
 34448,-0.00118111,0.00004625,0.00062774,-0.00129741,-0.00007157,-0.000
 07873,0.00005916,-0.00025701,-0.00014114,0.00053501,-0.00024593,0.0000
 0476,-0.00017114,-0.00002541,-0.00015212,-0.00004414,-0.00000173,0.000
 03917,0.00005254,0.00001171,0.00000067,-0.00000575,-0.00003736,-0.0000
 0829,-0.00000675,-0.00000368,-0.00002549,-0.00000465,-0.00000233,-0.00
 002254,-0.00001805,0.00000710,-0.00000833,-0.00000957,-0.00003110,0.00
 049712,0.00018652,0.00050921,0.00013999,-0.00024644,0.00001800,-0.0000
 4390,-0.00003936,-0.00006782,-0.00000123,0.00000980,-0.00000839,0.0000
 1219,0.00002937,0.00000004,-0.00001106,-0.00002173,0.00006242,0.000013
 81,-0.00003873,0.00005833,0.00000093,-0.00001035,-0.00001951,0.0000186
 3,-0.00005243,0.00004015,0.00005371,-0.00001698,0.00001848,-0.00002538
 ,0.00000031,-0.20887583,0.00469196,0.12903122,0.22969658,-0.00002613,-
 0.00037355,-0.00027610,0.00018467,-0.00007427,0.00000320,0.00004437,0.
 00001233,0.00001791,-0.00003425,-0.00005350,-0.00001845,0.00013352,0.0
 0012873,0.00033301,-0.00050520,0.00000328,0.00011971,-0.00002224,-0.00
 002380,-0.00001827,-0.00000156,0.00001213,-0.00000706,-0.00001308,-0.0
 0001169,-0.00002743,-0.00090963,-0.00043860,-0.00099645,0.00091297,0.0
 0025769,0.00000177,-0.00473941,0.00034811,0.00519737,-0.00046230,0.000
 38878,0.00005371,0.00054170,-0.00045732,0.00040368,-0.00028367,-0.0003
 2286,-0.00005202,0.00003920,0.00003418,-0.00005283,0.00013787,0.000295
 69,-0.00015823,0.00000909,0.00001871,-0.00006077,-0.00000044,-0.000063
 37,-0.00000710,-0.00000313,0.00003046,0.00002604,0.00000280,0.00000305
 ,-0.00001310,-0.00000306,-0.00000277,0.00000504,-0.00000246,-0.0000065
 3,-0.00000061,0.00000163,-0.00000203,-0.00000149,0.00000210,-0.0000021
 8,-0.00000463,-0.00005082,-0.00007270,-0.00010894,0.00002673,0.0002169
 3,-0.00021838,0.00007954,-0.00001348,0.00001269,0.00001504,0.00000840,
 0.00003154,0.00000631,-0.00002841,0.00001993,0.00000958,-0.00001228,0.
 00002997,-0.00002822,-0.00003754,0.00005338,-0.00015934,0.00007941,0.0
 0003647,0.00008854,-0.00003661,-0.00009327,0.00004994,-0.00005742,-0.0
 0001673,0.00001643,-0.00002168,-0.00001190,0.00394570,-0.04813476,-0.0
 0550236,-0.00544953,0.04684663,-0.00018780,-0.00058454,-0.00005425,-0.
 00007087,0.00013821,-0.00001941,0.00000888,-0.00001465,0.00003015,-0.0
 0001994,-0.00002887,-0.00002896,0.00020929,0.00005126,-0.00020225,-0.0
 0012835,-0.00043890,0.00027926,0.00001474,-0.00000494,-0.00000599,-0.0
 0000274,0.00000665,-0.00000349,0.00001124,-0.00002544,-0.00000246,0.00
 011180,-0.00018973,0.00002495,0.00049137,0.00050495,-0.00038853,-0.015
 47255,0.00088878,0.01308428,-0.00033969,0.00002339,0.00000353,-0.00105
 877,-0.00052253,-0.00094133,0.00015219,0.00044359,-0.00078518,-0.00001
 290,-0.00001228,0.00002718,-0.00016709,0.00008140,0.00027500,-0.000132
 14,-0.00000128,-0.00005768,0.00001561,-0.00004008,-0.00000057,0.000016
 42,0.00001867,0.00002888,0.00000274,0.00000605,0.00000341,-0.00000666,
 0.00000598,-0.00000877,0.00000029,-0.00000427,-0.00000029,-0.00000122,
 -0.00000447,-0.00000305,0.00000136,-0.00000193,-0.00000026,-0.00070310
 ,-0.00022629,0.00031936,0.00064338,0.00032589,0.00000870,-0.00000276,-
 0.00010929,-0.00003173,-0.00001273,0.00007787,-0.00008447,-0.00001221,
 -0.00000032,0.00001371,-0.00000420,-0.00000762,-0.00001721,0.00002122,
 -0.00002015,-0.00001862,0.00005454,-0.00010041,-0.00005023,-0.00010197
 ,0.00002531,0.00004611,-0.00000400,0.00005218,0.00004465,0.00000264,0.
 00001847,0.00002049,0.12679136,-0.00533728,-0.14553106,-0.13786842,0.0
 0598767,0.15749439,0.00011150,0.00000973,0.00014892,0.00012979,-0.0000
 6541,-0.00000509,0.00001981,0.00000373,-0.00004957,-0.00002860,0.00000
 715,0.00004888,0.00011486,-0.00005688,0.00017847,-0.00036723,0.0007083
 4,0.00001895,0.00000342,-0.00001417,-0.00000024,-0.00000160,0.00000585
 ,-0.00000317,0.00000720,-0.00000483,-0.00000226,-0.00478757,0.00014674
 ,-0.00292191,0.00063707,-0.00113657,-0.00025570,0.00109318,-0.02747746
 ,-0.01142023,-0.00005572,0.00009252,-0.00002355,0.00084704,-0.00166075
 ,0.00004074,0.00006867,-0.00020199,0.00002192,-0.00001794,0.00004809,-
 0.00000136,-0.00022761,0.00062615,-0.00005766,0.00002550,0.00001446,0.
 00003998,-0.00056388,-0.00015823,-0.00020223,0.00006397,-0.00006234,-0
 .00005938,-0.00002405,0.00000618,-0.00000501,-0.00003990,-0.00003898,0
 .00004805,-0.00000454,-0.00003091,-0.00001212,-0.00000148,-0.00000791,
 -0.00000883,0.00000471,0.00000123,-0.00000304,0.00002651,0.00008038,-0
 .00005889,-0.00000075,0.00006266,-0.00011609,0.00004786,-0.00000944,0.
 00000985,0.00000757,0.00000742,0.00000251,0.00000126,-0.00000648,0.000
 00928,0.00000394,-0.00000566,0.00000928,-0.00000024,-0.00000649,0.0000
 0357,-0.00001568,-0.00002464,0.00000397,-0.00000215,-0.00000067,-0.000
 03348,0.00001835,0.00001745,-0.00000965,0.00000788,-0.00001012,0.00000
 055,-0.05035095,0.01794636,0.00777535,-0.00064016,0.02462672,0.0084839
 0,0.05513353,-0.00023223,-0.00013136,0.00027707,0.00002695,-0.00000525
 ,0.00002607,0.00004989,-0.00001684,-0.00001088,-0.00004268,0.00005889,
 -0.00001967,0.00002496,0.00009218,-0.00018279,-0.00041727,-0.00011117,
 -0.00026434,0.00001955,-0.00001198,-0.00001426,0.00000890,-0.00001940,
 -0.00000741,0.00001152,-0.00002448,0.00001752,-0.00106890,0.00052714,-
 0.00086775,0.00066284,-0.00024860,0.00001256,0.00077308,-0.00649687,-0
 .00178062,-0.00001615,0.00014982,0.00006958,0.00204536,0.00052922,0.00
 143978,-0.00034827,0.00022915,0.00011735,-0.00001210,0.00005289,-0.000
 03789,-0.00013620,0.00082516,0.00004937,-0.00005482,-0.00000520,-0.000
 02364,-0.00032661,-0.00012608,-0.00011284,0.00007590,0.00002486,-0.000
 02090,-0.00001938,-0.00000194,0.00001390,-0.00003514,-0.00002012,0.000
 01256,0.00000234,-0.00001812,-0.00000539,-0.00000423,-0.00000953,-0.00
 001177,0.00000460,0.00000280,0.00000192,0.00007082,0.00011811,-0.00008
 279,-0.00006689,-0.00007494,0.00005858,0.00001054,-0.00000392,-0.00000
 062,0.00002423,0.00001073,-0.00001605,-0.00000219,0.00000953,-0.000018
 62,-0.00000534,-0.00000067,-0.00000168,0.00000322,0.00002011,-0.000013
 45,0.00002497,0.00001465,-0.00005207,0.00008927,0.00001885,-0.00006200
 ,-0.00002448,-0.00001661,0.00000324,-0.00000863,-0.00004227,0.00001634
 ,0.01419187,-0.27316940,-0.09661021,0.00054747,0.00088451,0.00044967,-
 0.01738697,0.29505116,0.00014288,0.00008778,-0.00006530,-0.00005733,0.
 00009275,-0.00006256,-0.00004903,-0.00004463,0.00007827,0.00013132,-0.
 00010652,0.00002369,0.00010146,0.00009351,-0.00002873,-0.00029582,0.00
 046123,0.00001639,0.00000926,-0.00000453,0.00000049,0.00000014,-0.0000
 0659,0.00000450,0.00000545,-0.00001260,0.00000404,-0.00322882,-0.00013
 804,-0.00072504,0.00041596,-0.00086568,0.00034622,0.00181799,-0.014732
 57,-0.00706305,-0.00009755,0.00019941,0.00003749,0.00134181,-0.0007309
 9,0.00045126,-0.00006010,0.00004589,-0.00013802,-0.00002672,0.00004083
 ,0.00001796,-0.00034825,0.00067161,0.00026286,0.00001416,0.00002154,-0
 .00003944,-0.00031208,0.00001062,-0.00021954,0.00008287,0.00001137,-0.
 00005064,-0.00001559,0.00000643,-0.00001213,-0.00002559,-0.00004533,0.
 00004617,-0.00000212,-0.00002617,-0.00001174,-0.00000126,-0.00000428,-
 0.00000822,0.00000424,0.00000006,-0.00000171,0.00005708,-0.00011117,-0
 .00004697,-0.00009920,-0.00010799,0.00012565,-0.00001802,0.00002688,0.
 00000742,0.00000215,-0.00001082,-0.00001496,-0.00000209,0.00001434,-0.
 00001175,-0.00000506,-0.00000224,-0.00000762,0.00001117,0.00001428,-0.
 00001038,-0.00003377,-0.00001816,0.00004225,-0.00011244,-0.00001896,0.
 00004481,0.00001079,0.00002558,0.00001557,0.00000515,0.00001085,0.0000
 1330,0.00590850,-0.09495832,-0.09151338,0.00056851,-0.01904415,-0.0078
 6320,-0.00431630,0.10655253,0.09432794,0.00011590,-0.00028134,0.000046
 12,-0.00006891,0.00007834,-0.00007055,-0.00005735,-0.00002013,0.000061
 63,-0.00000473,-0.00002946,0.00003099,0.00027916,-0.00007258,-0.000366
 13,0.00041159,-0.00007368,-0.00035516,0.00002476,-0.00001216,0.0000119
 1,-0.00000925,0.00000491,0.00000772,0.00001917,-0.00000716,0.00000926,
 0.00065060,0.00111885,0.00117383,-0.00069205,0.00008643,0.00063023,-0.
 00726963,0.01946717,-0.02160755,-0.00008658,0.00002759,-0.00011918,-0.
 00220280,-0.00205745,-0.00218498,-0.00126307,0.00003396,0.00097768,0.0
 0004687,-0.00000872,-0.00014063,0.00025800,0.00017097,-0.00051998,-0.0
 0030848,-0.00002679,-0.00014362,0.00001055,-0.00008345,0.00002663,0.00
 005532,0.00003538,-0.00001761,-0.00000980,0.00001419,-0.00001503,-0.00
 002778,-0.00001627,-0.00000096,-0.00000409,-0.00002176,-0.00000443,0.0
 0000070,-0.00001334,-0.00001168,0.00000267,-0.00000230,-0.00000370,-0.
 00003696,-0.00001113,0.00014195,0.00011761,0.00002389,0.00002796,0.000
 01552,-0.00001560,-0.00000444,-0.00001873,0.00000177,-0.00002033,0.000
 00071,0.00000846,0.00000506,-0.00000191,0.00000090,-0.00000162,0.00001
 938,0.00001414,-0.00002629,0.00009514,-0.00036108,-0.00025048,-0.00037
 507,0.00008183,0.00031690,0.00000545,0.00014113,0.00005671,0.00002137,
 0.00013764,0.00006451,-0.05276376,0.02903427,-0.03405862,0.00500209,-0
 .01817997,0.01927713,-0.00124358,0.00154018,-0.00152373,0.05929194,0.0
 0006649,0.00011158,0.00022749,-0.00006768,-0.00002682,-0.00004179,0.00
 003917,-0.00001728,0.00002525,0.00013309,0.00001242,0.00005309,-0.0002
 6908,-0.00047840,-0.00014041,-0.00038464,-0.00020129,-0.00089482,-0.00
 001423,-0.00002284,-0.00001511,-0.00001029,0.00000691,0.00000298,-0.00
 001551,-0.00000202,-0.00001720,-0.00049117,-0.00080360,-0.00060687,0.0
 0044679,0.00004664,0.00071509,0.00081843,0.00726405,-0.00700384,-0.000
 31818,0.00033699,-0.00014551,-0.00009992,-0.00022048,0.00011013,-0.000
 17556,-0.00009150,-0.00003470,-0.00000606,0.00000932,0.00004437,-0.000
 12572,0.00028430,0.00019704,-0.00003685,-0.00000831,0.00001526,0.00005
 185,0.00002680,-0.00000642,-0.00006017,0.00003607,0.00003492,0.0000101
 7,-0.00002651,-0.00001208,0.00001186,0.00000097,-0.00000209,-0.0000006
 0,0.00000186,0.00000036,-0.00000044,0.00000159,0.00000216,0.00000106,-
 0.00000274,-0.00000286,0.00008967,0.00004991,-0.00013832,-0.00000997,-
 0.00004662,0.00000090,0.00001730,-0.00000326,-0.00000340,-0.00001117,-
 0.00000057,0.00000590,-0.00000175,0.00000553,0.00000584,-0.00000057,-0
 .00000356,-0.00000301,0.00001225,0.00000706,-0.00000611,-0.00013972,-0
 .00006418,-0.00014437,-0.00001473,0.00013432,0.00011426,0.00003699,-0.
 00000370,-0.00001498,0.00001708,0.00004785,0.00000956,0.02780532,-0.16
 168009,0.12652611,-0.00053164,0.00067834,-0.00143071,0.00395574,-0.018
 06499,0.02260224,-0.03072760,0.17270624,0.00044313,0.00015197,-0.00030
 783,-0.00000144,0.00004330,-0.00012760,-0.00009405,-0.00004871,0.00008
 022,0.00025323,-0.00023756,0.00009736,0.00012362,-0.00006100,0.0001913
 4,-0.00004413,0.00031786,-0.00020432,-0.00000038,-0.00000513,0.0000138
 8,-0.00000818,0.00001155,0.00001474,0.00000155,0.00000349,-0.00001906,
 -0.00057105,0.00064956,0.00091195,-0.00036583,0.00011351,0.00035947,-0
 .00319298,0.00871173,-0.00997776,-0.00016205,-0.00006927,-0.00015157,-
 0.00053367,-0.00143060,-0.00127517,-0.00027987,0.00008579,0.00036646,0
 .00001069,-0.00001990,-0.00004221,0.00008992,0.00015415,-0.00001698,-0
 .00016681,-0.00002436,-0.00003799,0.00002696,-0.00008071,0.00002277,0.
 00002035,0.00002908,0.00000619,0.00000244,0.00001658,-0.00002830,-0.00
 002012,-0.00001808,0.00000732,-0.00000754,-0.00002130,-0.00000453,0.00
 000359,-0.00001163,-0.00000971,0.00000326,-0.00000430,-0.00000984,0.00
 009689,-0.00021037,-0.00004267,-0.00016084,0.00000311,-0.00002424,0.00
 000451,0.00004570,0.00003722,-0.00000037,-0.00002989,-0.00000192,0.000
 01152,-0.00001459,0.00000354,0.00000747,0.00000013,0.00002266,-0.00002
 545,-0.00002421,0.00003438,-0.00005783,0.00000345,0.00025295,-0.000240
 55,-0.00013521,0.00009955,0.00004484,0.00008696,-0.00001183,0.00003104
 ,0.00003254,-0.00000775,-0.03354825,0.12655790,-0.19131359,-0.00299570
 ,0.01435716,-0.01560506,0.00272159,-0.00890037,0.01202811,0.03858049,-
 0.14002835,0.20466981\\-0.00000879,-0.00000461,0.00003018,0.00000759,-
 0.00000354,-0.00000556,-0.00000048,0.00000152,-0.00000280,0.00000023,0
 .00000294,-0.00000061,0.00000777,-0.00000707,-0.00000340,-0.00000175,-
 0.00000012,0.00000630,-0.00000050,0.00000434,-0.00000099,0.00000045,0.
 00000076,0.00000052,-0.00000119,0.00000075,0.00000018,-0.00000119,0.00
 000221,-0.00000590,0.00000470,-0.00000360,0.00000583,0.00000319,-0.000
 00081,0.00000019,-0.00000113,-0.00000068,-0.00000239,-0.00000334,0.000
 00132,-0.00000092,0.00000144,0.00000025,0.00000162,0.00000005,-0.00000
 173,0.00000055,0.00000017,-0.00000053,0.00000032,-0.00000061,-0.000000
 65,-0.00000059,-0.00000166,0.00000267,-0.00000100,-0.00000448,0.000003
 41,-0.00001038,0.00000159,-0.00000083,0.00000342,0.00000192,-0.0000038
 0,0.00000446,0.00000031,-0.00000173,-0.00000044,0.00000101,0.00000110,
 0.00000122,0.00000057,-0.00000022,0.00000012,-0.00000528,0.00000225,-0
 .00002160,0.00001070,-0.00000139,0.00001159,-0.00001056,-0.00000311,0.
 00000045,0.00000771,0.00001248,-0.00001831,-0.00000238,0.00000122,0.00
 000209,-0.00000339,-0.00000360,0.00000583,-0.00000035,-0.00000086,0.00
 000030,-0.00000222,-0.00000037,-0.00000126,0.00000152,0.00000097,0.000
 00051,0.00000073,0.00000047,0.00000011,-0.00000021,0.00000004,0.000000
 05,-0.00000203,0.00000084,-0.00000101,0.00000043,0.00000033,0.00000119
 ,-0.00000002,-0.00000012,-0.00000044,-0.00000049,-0.00000050,0.0000005
 6\\\@
 The archive entry for this job was punched.


                                                                                    A
                                                                                  AA
                                                                                 AAA
                                                                                AAAA
                                                                               AAAAA
                                                                              AAAAAA   KKKKKKKK
                                                                             AAAAAAA   KKKKKKKK
                                                                            AAAAAAAA   KKKKKKKK
                                       ZZZZZZZZZZZZZZZZZZZZ                AAAA  AAA   KKKKKKKK
                                       ZZZZZZZZZZZZZZZZZZZ                AAAA   AAA   KKKKKKKK          K
                                       ZZZZZZZZZZZZZZZZZZ                AAAA    AAA   KKKKKKKK         KKK
                                       ZZZZZZZZZZZZZZZZZ                AAAA     AAA   KKKKKKKK        KKKKK
                                       ZZZZZZZZZZZZZZZZ                AAAA      AAA   KKKKKKKK       KKKKKKK
                                                ZZZZZZ                AAAA       AAA   KKKKKKKK      KKKKKKK
                                               ZZZZZZ                AAAA        AAA   KKKKKKKK     KKKKKKK
                                              ZZZZZZ                AAAA         AAA   KKKKKKKK    KKKKKKK
                                             ZZZZZZ                AAAA          AAA   KKKKKKKK   KKKKKKK
                                            ZZZZZZ                AAAAAAAAAAAAAAAAAA   KKKKKKKK  KKKKKKK
                                           ZZZZZZ                AAAAAAAAAAAAAAAAAAA   KKKKKKKK KKKKKKK
                                          ZZZZZZ                AAAAAAAAAAAAAAAAAAAA   KKKKKKKKKKKKKKK
                                         ZZZZZZ                AAAAAAAAAAAAAAAAAAAAA   KKKKKKKKKKKKKK
                                        ZZZZZZ                AAAAAA        AAAAAAAA   KKKKKKKKKKKKK
                                       ZZZZZZ                AAAAAA         AAAAAAAA   KKKKKKKKKKKK
                                      ZZZZZZ                AAAAAA          AAAAAAAA   KKKKKKKKKKK
                                     ZZZZZZ                AAAAAA           AAAAAAAA   KKKKKKKKKKKK
                                    ZZZZZZ                AAAAAA            AAAAAAAA   KKKKKKKKKKKKK
                                   ZZZZZZ                AAAAAA             AAAAAAAA   KKKKKKKKKKKKKK
                                  ZZZZZZ                AAAAAA              AAAAAAAA   KKKKKKKKKKKKKKK
                                 ZZZZZZ                AAAAAA               AAAAAAAA   KKKKK KKKKKKKKKK
                                ZZZZZZ                AAAAAA                AAAAAAAA   KKKKK  KKKKKKKKKK
                               ZZZZZZ                AAAAAA                            KKKKK   KKKKKKKKKK
                              ZZZZZZ                AAAAAA                             KKKKK    KKKKKKKKKK
                             ZZZZZZ                                                    KKKKK     KKKKKKKKKK
                            ZZZZZZ                                                     KKKKK      KKKKKKKKKK
                           ZZZZZZ                                                      KKKKK       KKKKKKKKKK
                          ZZZZZZ                                                       KKKKK        KKKKKKKKKK
                         ZZZZZZZZZZZZZZZZZZZZZZZZZZZZZZZZZZZZZZZZ                      KKKKK         KKKKKKKKKK
                        ZZZZZZZZZZZZZZZZZZZZZZZZZZZZZZZZZZZZZZZZZ                      KKKKK          KKKKKKKKKK
                       ZZZZZZZZZZZZZZZZZZZZZZZZZZZZZZZZZZZZZZZZZZ                      KKKKK           KKKKKKKKKK
                       ZZZZZZZZZZZZZZZZZZZZZZZZZZZZZZZZZZZZZZZZZZ                      KKKKK            KKKKKKKKKK
                       ZZZZZZZZZZZZZZZZZZZZZZZZZZZZZZZZZZZZZZZZZZ                      KKKKK             KKKKKKKKKK
                       ZZZZZZZZZZZZZZZZZZZZZZZZZZZZZZZZZZZZZZZZZZ                      KKKKK              KKKKKKKKKK
                       ZZZZZZZZZZZZZZZZZZZZZZZZZZZZZZZZZZZZZZZZZZ                      KKKKK               KKKKKKKKKK
                       ZZZZZZZZZZZZZZZZZZZZZZZZZZZZZZZZZZZZZZZZZZ                      KKKKK                KKKKKKKKKK
                       ZZZZZZZZZZZZZZZZZZZZZZZZZZZZZZZZZZZZZZZZZZ                      KKKKK
                                                                                       KKKKK
                                                                                          (J.P.)
 Job cpu time:       0 days  6 hours 58 minutes 49.3 seconds.
 Elapsed time:       0 days  0 hours  6 minutes 36.2 seconds.
 File lengths (MBytes):  RWF=    699 Int=      0 D2E=      0 Chk=     23 Scr=      1
 Normal termination of Gaussian 16 at Mon Sep 12 11:38:59 2022.
