 Entering Gaussian System, Link 0=/home/rong/g16/g16
 Input=/home/rong/g16/092821/CH2NCHCH3.gjf
 Output=/home/rong/g16/092821/CH2NCHCH3.log
 Initial command:
 /home/rong/g16/l1.exe "/tmp/Gau-150847.inp" -scrdir="/tmp/"
 Default is to use a total of   8 processors:
                                8 via shared-memory
                                1 via Linda
 Entering Link 1 = /home/rong/g16/l1.exe PID=    150849.
  
 Copyright (c) 1988-2019, Gaussian, Inc.  All Rights Reserved.
  
 This is part of the Gaussian(R) 16 program.  It is based on
 the Gaussian(R) 09 system (copyright 2009, Gaussian, Inc.),
 the Gaussian(R) 03 system (copyright 2003, Gaussian, Inc.),
 the Gaussian(R) 98 system (copyright 1998, Gaussian, Inc.),
 the Gaussian(R) 94 system (copyright 1995, Gaussian, Inc.),
 the Gaussian 92(TM) system (copyright 1992, Gaussian, Inc.),
 the Gaussian 90(TM) system (copyright 1990, Gaussian, Inc.),
 the Gaussian 88(TM) system (copyright 1988, Gaussian, Inc.),
 the Gaussian 86(TM) system (copyright 1986, Carnegie Mellon
 University), and the Gaussian 82(TM) system (copyright 1983,
 Carnegie Mellon University). Gaussian is a federally registered
 trademark of Gaussian, Inc.
  
 This software contains proprietary and confidential information,
 including trade secrets, belonging to Gaussian, Inc.
  
 This software is provided under written license and may be
 used, copied, transmitted, or stored only in accord with that
 written license.
  
 The following legend is applicable only to US Government
 contracts under FAR:
  
                    RESTRICTED RIGHTS LEGEND
  
 Use, reproduction and disclosure by the US Government is
 subject to restrictions as set forth in subparagraphs (a)
 and (c) of the Commercial Computer Software - Restricted
 Rights clause in FAR 52.227-19.
  
 Gaussian, Inc.
 340 Quinnipiac St., Bldg. 40, Wallingford CT 06492
  
  
 ---------------------------------------------------------------
 Warning -- This program may not be used in any manner that
 competes with the business of Gaussian, Inc. or will provide
 assistance to any competitor of Gaussian, Inc.  The licensee
 of this program is prohibited from giving any competitor of
 Gaussian, Inc. access to this program.  By using this program,
 the user acknowledges that Gaussian, Inc. is engaged in the
 business of creating and licensing software in the field of
 computational chemistry and represents and warrants to the
 licensee that it is not a competitor of Gaussian, Inc. and that
 it will not use this program in any manner prohibited above.
 ---------------------------------------------------------------
  

 Cite this work as:
 Gaussian 16, Revision C.01,
 M. J. Frisch, G. W. Trucks, H. B. Schlegel, G. E. Scuseria, 
 M. A. Robb, J. R. Cheeseman, G. Scalmani, V. Barone, 
 G. A. Petersson, H. Nakatsuji, X. Li, M. Caricato, A. V. Marenich, 
 J. Bloino, B. G. Janesko, R. Gomperts, B. Mennucci, H. P. Hratchian, 
 J. V. Ortiz, A. F. Izmaylov, J. L. Sonnenberg, D. Williams-Young, 
 F. Ding, F. Lipparini, F. Egidi, J. Goings, B. Peng, A. Petrone, 
 T. Henderson, D. Ranasinghe, V. G. Zakrzewski, J. Gao, N. Rega, 
 G. Zheng, W. Liang, M. Hada, M. Ehara, K. Toyota, R. Fukuda, 
 J. Hasegawa, M. Ishida, T. Nakajima, Y. Honda, O. Kitao, H. Nakai, 
 T. Vreven, K. Throssell, J. A. Montgomery, Jr., J. E. Peralta, 
 F. Ogliaro, M. J. Bearpark, J. J. Heyd, E. N. Brothers, K. N. Kudin, 
 V. N. Staroverov, T. A. Keith, R. Kobayashi, J. Normand, 
 K. Raghavachari, A. P. Rendell, J. C. Burant, S. S. Iyengar, 
 J. Tomasi, M. Cossi, J. M. Millam, M. Klene, C. Adamo, R. Cammi, 
 J. W. Ochterski, R. L. Martin, K. Morokuma, O. Farkas, 
 J. B. Foresman, and D. J. Fox, Gaussian, Inc., Wallingford CT, 2019.
 
 ******************************************
 Gaussian 16:  ES64L-G16RevC.01  3-Jul-2019
                29-Sep-2021 
 ******************************************
 %mem=15GB
 %chk=CH2NCHCH3.chk
 %nprocshared=8
 Will use up to    8 processors via shared memory.
 ----------------------------------------------------
 # opt freq b3lyp/6-31g(d) scrf=(smd,solvent=toluene)
 ----------------------------------------------------
 1/18=20,19=15,26=3,38=1/1,3;
 2/9=110,12=2,17=6,18=5,40=1/2;
 3/5=1,6=6,7=1,11=2,25=1,30=1,70=32201,71=1,72=13,74=-5/1,2,3;
 4//1;
 5/5=2,38=5,53=13/2;
 6/7=2,8=2,9=2,10=2,28=1/1;
 7//1,2,3,16;
 1/18=20,19=15,26=3/3(2);
 2/9=110/2;
 99//99;
 2/9=110/2;
 3/5=1,6=6,7=1,11=2,25=1,30=1,70=32205,71=1,72=13,74=-5/1,2,3;
 4/5=5,16=3,69=1/1;
 5/5=2,38=5,53=13/2;
 7//1,2,3,16;
 1/18=20,19=15,26=3/3(-5);
 2/9=110/2;
 6/7=2,8=2,9=2,10=2,19=2,28=1/1;
 99/9=1/99;
 ---------
 CH2NCHCH3
 ---------
 Symbolic Z-matrix:
 Charge =  0 Multiplicity = 1
 C                    -2.35294   1.54412   0. 
 H                    -1.99627   2.04852  -0.87365 
 H                    -3.42294   1.54413   0. 
 C                    -1.8396    2.27007   1.2574 
 H                    -2.19609   3.27894   1.25731 
 H                    -2.19643   1.76579   2.13106 
 N                    -0.3696    2.26982   1.25754 
 N                    -1.86296   0.15818   0. 
 C                    -2.483    -0.74706  -0.68519 
 H                    -2.25922  -0.88502  -1.7224 
 C                     0.27721   2.82992   2.22776 
 H                     0.5374    3.86603   2.16704 
 C                    -3.54687  -1.62919  -0.00577 
 H                    -4.46231  -1.08189   0.07982 
 H                    -3.71032  -2.50786  -0.5941 
 H                    -3.20717  -1.91074   0.96903 
 C                     0.67402   2.01061   3.46988 
 H                     1.07142   1.06603   3.16207 
 H                     1.4148    2.54454   4.02761 
 H                    -0.18844   1.85199   4.08299 
 

 GradGradGradGradGradGradGradGradGradGradGradGradGradGradGradGradGradGrad
 Berny optimization.
 Initialization pass.
                           ----------------------------
                           !    Initial Parameters    !
                           ! (Angstroms and Degrees)  !
 --------------------------                            --------------------------
 ! Name  Definition              Value          Derivative Info.                !
 --------------------------------------------------------------------------------
 ! R1    R(1,2)                  1.07           estimate D2E/DX2                !
 ! R2    R(1,3)                  1.07           estimate D2E/DX2                !
 ! R3    R(1,4)                  1.54           estimate D2E/DX2                !
 ! R4    R(1,8)                  1.47           estimate D2E/DX2                !
 ! R5    R(4,5)                  1.07           estimate D2E/DX2                !
 ! R6    R(4,6)                  1.07           estimate D2E/DX2                !
 ! R7    R(4,7)                  1.47           estimate D2E/DX2                !
 ! R8    R(7,11)                 1.2936         estimate D2E/DX2                !
 ! R9    R(8,9)                  1.2936         estimate D2E/DX2                !
 ! R10   R(9,10)                 1.07           estimate D2E/DX2                !
 ! R11   R(9,13)                 1.54           estimate D2E/DX2                !
 ! R12   R(11,12)                1.07           estimate D2E/DX2                !
 ! R13   R(11,17)                1.54           estimate D2E/DX2                !
 ! R14   R(13,14)                1.07           estimate D2E/DX2                !
 ! R15   R(13,15)                1.07           estimate D2E/DX2                !
 ! R16   R(13,16)                1.07           estimate D2E/DX2                !
 ! R17   R(17,18)                1.07           estimate D2E/DX2                !
 ! R18   R(17,19)                1.07           estimate D2E/DX2                !
 ! R19   R(17,20)                1.07           estimate D2E/DX2                !
 ! A1    A(2,1,3)              109.4712         estimate D2E/DX2                !
 ! A2    A(2,1,4)              109.4713         estimate D2E/DX2                !
 ! A3    A(2,1,8)              109.4712         estimate D2E/DX2                !
 ! A4    A(3,1,4)              109.4712         estimate D2E/DX2                !
 ! A5    A(3,1,8)              109.4712         estimate D2E/DX2                !
 ! A6    A(4,1,8)              109.4712         estimate D2E/DX2                !
 ! A7    A(1,4,5)              109.4712         estimate D2E/DX2                !
 ! A8    A(1,4,6)              109.4712         estimate D2E/DX2                !
 ! A9    A(1,4,7)              109.4712         estimate D2E/DX2                !
 ! A10   A(5,4,6)              109.4712         estimate D2E/DX2                !
 ! A11   A(5,4,7)              109.4713         estimate D2E/DX2                !
 ! A12   A(6,4,7)              109.4712         estimate D2E/DX2                !
 ! A13   A(4,7,11)             120.0            estimate D2E/DX2                !
 ! A14   A(1,8,9)              120.0            estimate D2E/DX2                !
 ! A15   A(8,9,10)             120.2269         estimate D2E/DX2                !
 ! A16   A(8,9,13)             119.8865         estimate D2E/DX2                !
 ! A17   A(10,9,13)            119.8865         estimate D2E/DX2                !
 ! A18   A(7,11,12)            119.8865         estimate D2E/DX2                !
 ! A19   A(7,11,17)            120.2269         estimate D2E/DX2                !
 ! A20   A(12,11,17)           119.8865         estimate D2E/DX2                !
 ! A21   A(9,13,14)            109.4712         estimate D2E/DX2                !
 ! A22   A(9,13,15)            109.4712         estimate D2E/DX2                !
 ! A23   A(9,13,16)            109.4712         estimate D2E/DX2                !
 ! A24   A(14,13,15)           109.4713         estimate D2E/DX2                !
 ! A25   A(14,13,16)           109.4712         estimate D2E/DX2                !
 ! A26   A(15,13,16)           109.4712         estimate D2E/DX2                !
 ! A27   A(11,17,18)           109.4712         estimate D2E/DX2                !
 ! A28   A(11,17,19)           109.4712         estimate D2E/DX2                !
 ! A29   A(11,17,20)           109.4712         estimate D2E/DX2                !
 ! A30   A(18,17,19)           109.4713         estimate D2E/DX2                !
 ! A31   A(18,17,20)           109.4712         estimate D2E/DX2                !
 ! A32   A(19,17,20)           109.4712         estimate D2E/DX2                !
 ! D1    D(2,1,4,5)             59.9889         estimate D2E/DX2                !
 ! D2    D(2,1,4,6)            179.9889         estimate D2E/DX2                !
 ! D3    D(2,1,4,7)            -60.0111         estimate D2E/DX2                !
 ! D4    D(3,1,4,5)            -60.0111         estimate D2E/DX2                !
 ! D5    D(3,1,4,6)             59.9889         estimate D2E/DX2                !
 ! D6    D(3,1,4,7)            179.9889         estimate D2E/DX2                !
 ! D7    D(8,1,4,5)            179.9889         estimate D2E/DX2                !
 ! D8    D(8,1,4,6)            -60.0111         estimate D2E/DX2                !
 ! D9    D(8,1,4,7)             59.9889         estimate D2E/DX2                !
 ! D10   D(2,1,8,9)            -82.2932         estimate D2E/DX2                !
 ! D11   D(3,1,8,9)             37.7068         estimate D2E/DX2                !
 ! D12   D(4,1,8,9)            157.7068         estimate D2E/DX2                !
 ! D13   D(1,4,7,11)           179.9999         estimate D2E/DX2                !
 ! D14   D(5,4,7,11)            59.9999         estimate D2E/DX2                !
 ! D15   D(6,4,7,11)           -60.0001         estimate D2E/DX2                !
 ! D16   D(4,7,11,12)          -89.5311         estimate D2E/DX2                !
 ! D17   D(4,7,11,17)           90.4689         estimate D2E/DX2                !
 ! D18   D(1,8,9,10)            85.3671         estimate D2E/DX2                !
 ! D19   D(1,8,9,13)           -94.6329         estimate D2E/DX2                !
 ! D20   D(8,9,13,14)           78.9746         estimate D2E/DX2                !
 ! D21   D(8,9,13,15)         -161.0254         estimate D2E/DX2                !
 ! D22   D(8,9,13,16)          -41.0254         estimate D2E/DX2                !
 ! D23   D(10,9,13,14)        -101.0254         estimate D2E/DX2                !
 ! D24   D(10,9,13,15)          18.9746         estimate D2E/DX2                !
 ! D25   D(10,9,13,16)         138.9746         estimate D2E/DX2                !
 ! D26   D(7,11,17,18)          44.5942         estimate D2E/DX2                !
 ! D27   D(7,11,17,19)         164.5942         estimate D2E/DX2                !
 ! D28   D(7,11,17,20)         -75.4058         estimate D2E/DX2                !
 ! D29   D(12,11,17,18)       -135.4058         estimate D2E/DX2                !
 ! D30   D(12,11,17,19)        -15.4058         estimate D2E/DX2                !
 ! D31   D(12,11,17,20)        104.5942         estimate D2E/DX2                !
 --------------------------------------------------------------------------------
 Trust Radius=3.00D-01 FncErr=1.00D-07 GrdErr=1.00D-06 EigMax=2.50D+02 EigMin=1.00D-04
 Number of steps in this run=     92 maximum allowed number of steps=    120.
 GradGradGradGradGradGradGradGradGradGradGradGradGradGradGradGradGradGrad

                          Input orientation:                          
 ---------------------------------------------------------------------
 Center     Atomic      Atomic             Coordinates (Angstroms)
 Number     Number       Type             X           Y           Z
 ---------------------------------------------------------------------
      1          6           0       -2.352941    1.544118    0.000000
      2          1           0       -1.996268    2.048516   -0.873652
      3          1           0       -3.422941    1.544131    0.000000
      4          6           0       -1.839599    2.270074    1.257405
      5          1           0       -2.196094    3.278940    1.257307
      6          1           0       -2.196431    1.765788    2.131056
      7          7           0       -0.369599    2.269823    1.257539
      8          7           0       -1.862958    0.158182    0.000000
      9          6           0       -2.482998   -0.747059   -0.685193
     10          1           0       -2.259217   -0.885020   -1.722395
     11          6           0        0.277208    2.829922    2.227761
     12          1           0        0.537397    3.866028    2.167040
     13          6           0       -3.546871   -1.629193   -0.005772
     14          1           0       -4.462311   -1.081886    0.079820
     15          1           0       -3.710316   -2.507861   -0.594098
     16          1           0       -3.207172   -1.910742    0.969028
     17          6           0        0.674025    2.010607    3.469880
     18          1           0        1.071422    1.066028    3.162071
     19          1           0        1.414801    2.544539    4.027614
     20          1           0       -0.188438    1.851991    4.082985
 ---------------------------------------------------------------------
                    Distance matrix (angstroms):
                    1          2          3          4          5
     1  C    0.000000
     2  H    1.070000   0.000000
     3  H    1.070000   1.747303   0.000000
     4  C    1.540000   2.148263   2.148263   0.000000
     5  H    2.148263   2.468777   2.468915   1.070000   0.000000
     6  H    2.148263   3.024611   2.468777   1.070000   1.747303
     7  N    2.457987   2.690168   3.380966   1.470000   2.086720
     8  N    1.470000   2.086720   2.086720   2.457987   3.380966
     9  C    2.394972   2.843881   2.569539   3.645647   4.479318
    10  H    2.979285   3.065149   3.197135   4.360035   5.120662
    11  C    3.678845   3.924035   4.506360   2.394972   2.694554
    12  H    4.294343   4.355297   5.076568   3.004099   2.940112
    13  C    3.390487   4.084498   3.175748   4.440121   5.244972
    14  H    3.369229   4.097547   2.825354   4.415989   5.053614
    15  H    4.314389   4.876134   4.105384   5.454934   6.261600
    16  H    3.688466   4.531829   3.594679   4.408247   5.295110
    17  C    4.628196   5.098840   5.389137   3.358671   3.839496
    18  H    4.685459   5.163629   5.516029   3.681239   4.381982
    19  H    5.605212   5.991981   6.373872   4.282582   4.610044
    20  H    4.631482   5.279689   5.218003   3.299246   3.748509
                    6          7          8          9         10
     6  H    0.000000
     7  N    2.086720   0.000000
     8  N    2.690168   2.875857   0.000000
     9  C    3.785205   4.164401   1.293600   0.000000
    10  H    4.677586   4.733255   2.052301   1.070000   0.000000
    11  C    2.694555   1.293600   4.084290   5.375763   5.986483
    12  H    3.447625   2.048829   4.919947   6.207945   6.746941
    13  C    4.232684   5.185879   2.455668   1.540000   2.271265
    14  H    4.177442   5.419526   2.881107   2.148263   2.853132
    15  H    5.289838   6.116798   3.297495   2.148263   2.452011
    16  H    3.986073   5.060848   2.650731   2.148263   3.032241
    17  C    3.176776   2.459837   4.680580   5.902216   6.629351
    18  H    3.497359   2.674492   4.408340   5.542800   6.225573
    19  H    4.152636   3.306489   5.714900   6.945359   7.636943
    20  H    2.801694   2.861914   4.726920   5.895387   6.744019
                   11         12         13         14         15
    11  C    0.000000
    12  H    1.070000   0.000000
    13  C    6.284581   7.183300   0.000000
    14  H    6.509910   7.337262   1.070000   0.000000
    15  H    7.235687   8.142076   1.070000   1.747303   0.000000
    16  H    6.016578   6.987710   1.070000   1.747303   1.747303
    17  C    1.540000   2.271265   6.568429   6.887522   7.493658
    18  H    2.148263   3.019150   6.215149   6.688498   7.053121
    19  H    2.148263   2.444976   7.635865   7.954651   8.552999
    20  H    2.148263   2.872983   6.333691   6.549728   7.299797
                   16         17         18         19         20
    16  H    0.000000
    17  C    6.057634   0.000000
    18  H    5.654818   1.070000   0.000000
    19  H    7.111056   1.070000   1.747303   0.000000
    20  H    5.741745   1.070000   1.747303   1.747303   0.000000
 Stoichiometry    C6H12N2
 Framework group  C1[X(C6H12N2)]
 Deg. of freedom    54
 Full point group                 C1      NOp   1
 Largest Abelian subgroup         C1      NOp   1
 Largest concise Abelian subgroup C1      NOp   1
                         Standard orientation:                         
 ---------------------------------------------------------------------
 Center     Atomic      Atomic             Coordinates (Angstroms)
 Number     Number       Type             X           Y           Z
 ---------------------------------------------------------------------
      1          6           0        0.748634   -1.172187    0.144926
      2          1           0        0.697274   -1.967086   -0.569495
      3          1           0        1.378826   -1.464297    0.958823
      4          6           0       -0.664652   -0.865710    0.674354
      5          1           0       -1.067854   -1.739834    1.141510
      6          1           0       -0.613267   -0.070940    1.388918
      7          7           0       -1.530360   -0.464143   -0.443766
      8          7           0        1.302461    0.028636   -0.497103
      9          6           0        2.582809    0.161117   -0.625786
     10          1           0        3.087270   -0.269829   -1.465252
     11          6           0       -2.768489   -0.159180   -0.225968
     12          1           0       -3.519170   -0.920895   -0.260149
     13          6           0        3.383734    0.941753    0.432858
     14          1           0        3.544647    0.319832    1.288557
     15          1           0        4.327417    1.234295    0.022028
     16          1           0        2.835625    1.813522    0.723539
     17          6           0       -3.165741    1.296408    0.082342
     18          1           0       -2.661717    1.954602   -0.594149
     19          1           0       -4.223622    1.409247   -0.031914
     20          1           0       -2.887896    1.536724    1.087305
 ---------------------------------------------------------------------
 Rotational constants (GHZ):           4.4700309           0.8055225           0.7425701
 Standard basis: 6-31G(d) (6D, 7F)
 There are   144 symmetry adapted cartesian basis functions of A   symmetry.
 There are   144 symmetry adapted basis functions of A   symmetry.
   144 basis functions,   272 primitive gaussians,   144 cartesian basis functions
    31 alpha electrons       31 beta electrons
       nuclear repulsion energy       351.7199916051 Hartrees.
 NAtoms=   20 NActive=   20 NUniq=   20 SFac= 1.00D+00 NAtFMM=   60 NAOKFM=F Big=F
 Integral buffers will be    131072 words long.
 Raffenetti 2 integral format.
 Two-electron integral symmetry is turned on.
 ------------------------------------------------------------------------------
 Polarizable Continuum Model (PCM)
 =================================
 Model                : PCM.
 Atomic radii         : SMD-Coulomb.
 Polarization charges : Total charges.
 Charge compensation  : None.
 Solution method      : On-the-fly selection.
 Cavity type          : VdW (van der Waals Surface) (Alpha=1.000).
 Cavity algorithm     : GePol (No added spheres)
                        Default sphere list used, NSphG=   20.
                        Lebedev-Laikov grids with approx.  5.0 points / Ang**2.
                        Smoothing algorithm: York/Karplus (Gamma=1.0000).
                        Polarization charges: spherical gaussians, with
                                              point-specific exponents (IZeta= 3).
                        Self-potential: point-specific (ISelfS= 7).
                        Self-field    : sphere-specific E.n sum rule (ISelfD= 2).
 1st derivatives      : Analytical E(r).r(x)/FMM algorithm (CHGder, D1EAlg=3).
                        Cavity 1st derivative terms included.
 Solvent              : Toluene, Eps=   2.374100 Eps(inf)=   2.238315
 ------------------------------------------------------------------------------
 Spheres list:
 ISph  on   Nord     Re0    Alpha      Xe            Ye            Ze
    1   C      1    1.8500  1.000      0.748634     -1.172187      0.144926
    2   H      2    1.2000  1.000      0.697274     -1.967086     -0.569495
    3   H      3    1.2000  1.000      1.378826     -1.464297      0.958823
    4   C      4    1.8500  1.000     -0.664652     -0.865710      0.674354
    5   H      5    1.2000  1.000     -1.067854     -1.739834      1.141510
    6   H      6    1.2000  1.000     -0.613267     -0.070940      1.388918
    7   N      7    1.8900  1.000     -1.530360     -0.464143     -0.443766
    8   N      8    1.8900  1.000      1.302461      0.028636     -0.497103
    9   C      9    1.8500  1.000      2.582809      0.161117     -0.625786
   10   H     10    1.2000  1.000      3.087270     -0.269829     -1.465252
   11   C     11    1.8500  1.000     -2.768489     -0.159180     -0.225968
   12   H     12    1.2000  1.000     -3.519170     -0.920895     -0.260149
   13   C     13    1.8500  1.000      3.383734      0.941753      0.432858
   14   H     14    1.2000  1.000      3.544647      0.319832      1.288557
   15   H     15    1.2000  1.000      4.327417      1.234295      0.022028
   16   H     16    1.2000  1.000      2.835625      1.813522      0.723539
   17   C     17    1.8500  1.000     -3.165741      1.296408      0.082342
   18   H     18    1.2000  1.000     -2.661717      1.954602     -0.594149
   19   H     19    1.2000  1.000     -4.223622      1.409247     -0.031914
   20   H     20    1.2000  1.000     -2.887896      1.536724      1.087305
 ------------------------------------------------------------------------------
 ------------------------------------------------------------------------------
 Atomic radii for non-electrostatic terms: SMD-CDS.
 ------------------------------------------------------------------------------
 Nuclear repulsion after PCM non-electrostatic terms =      351.7166344290 Hartrees.
 One-electron integrals computed using PRISM.
 NBasis=   144 RedAO= T EigKep=  3.77D-03  NBF=   144
 NBsUse=   144 1.00D-06 EigRej= -1.00D+00 NBFU=   144
 ExpMin= 1.61D-01 ExpMax= 4.17D+03 ExpMxC= 6.27D+02 IAcc=3 IRadAn=         5 AccDes= 0.00D+00
 Harris functional with IExCor=  402 and IRadAn=       5 diagonalized for initial guess.
 HarFok:  IExCor=  402 AccDes= 0.00D+00 IRadAn=         5 IDoV= 1 UseB2=F ITyADJ=14
 ICtDFT=  3500011 ScaDFX=  1.000000  1.000000  1.000000  1.000000
 FoFCou: FMM=F IPFlag=           0 FMFlag=      100000 FMFlg1=           0
         NFxFlg=           0 DoJE=T BraDBF=F KetDBF=T FulRan=T
         wScrn=  0.000000 ICntrl=       500 IOpCl=  0 I1Cent=   200000004 NGrid=           0
         NMat0=    1 NMatS0=      1 NMatT0=    0 NMatD0=    1 NMtDS0=    0 NMtDT0=    0
 Petite list used in FoFCou.
 Requested convergence on RMS density matrix=1.00D-08 within 128 cycles.
 Requested convergence on MAX density matrix=1.00D-06.
 Requested convergence on             energy=1.00D-06.
 No special actions if energy rises.
 Inv3:  Mode=1 IEnd=     7263408.
 Iteration    1 A*A^-1 deviation from unit magnitude is 2.66D-15 for   1517.
 Iteration    1 A*A^-1 deviation from orthogonality  is 2.23D-15 for    849    382.
 Iteration    1 A^-1*A deviation from unit magnitude is 2.66D-15 for   1517.
 Iteration    1 A^-1*A deviation from orthogonality  is 1.50D-15 for   1511    950.
 Error on total polarization charges =  0.02552
 SCF Done:  E(RB3LYP) =  -345.172950075     A.U. after   14 cycles
            NFock= 14  Conv=0.87D-08     -V/T= 2.0090
 SMD-CDS (non-electrostatic) energy       (kcal/mol) =      -2.11
 (included in total energy above)

 **********************************************************************

            Population analysis using the SCF Density.

 **********************************************************************

 Orbital symmetries:
       Occupied  (A) (A) (A) (A) (A) (A) (A) (A) (A) (A) (A) (A)
                 (A) (A) (A) (A) (A) (A) (A) (A) (A) (A) (A) (A)
                 (A) (A) (A) (A) (A) (A) (A)
       Virtual   (A) (A) (A) (A) (A) (A) (A) (A) (A) (A) (A) (A)
                 (A) (A) (A) (A) (A) (A) (A) (A) (A) (A) (A) (A)
                 (A) (A) (A) (A) (A) (A) (A) (A) (A) (A) (A) (A)
                 (A) (A) (A) (A) (A) (A) (A) (A) (A) (A) (A) (A)
                 (A) (A) (A) (A) (A) (A) (A) (A) (A) (A) (A) (A)
                 (A) (A) (A) (A) (A) (A) (A) (A) (A) (A) (A) (A)
                 (A) (A) (A) (A) (A) (A) (A) (A) (A) (A) (A) (A)
                 (A) (A) (A) (A) (A) (A) (A) (A) (A) (A) (A) (A)
                 (A) (A) (A) (A) (A) (A) (A) (A) (A) (A) (A) (A)
                 (A) (A) (A) (A) (A)
 The electronic state is 1-A.
 Alpha  occ. eigenvalues --  -14.27387 -14.27296 -10.24911 -10.24386 -10.20626
 Alpha  occ. eigenvalues --  -10.20517 -10.17076 -10.17054  -0.89064  -0.87315
 Alpha  occ. eigenvalues --   -0.75926  -0.72348  -0.69279  -0.61933  -0.55848
 Alpha  occ. eigenvalues --   -0.53993  -0.47817  -0.46412  -0.43156  -0.42976
 Alpha  occ. eigenvalues --   -0.42193  -0.41387  -0.39715  -0.38627  -0.37666
 Alpha  occ. eigenvalues --   -0.37539  -0.36255  -0.28844  -0.27060  -0.16468
 Alpha  occ. eigenvalues --   -0.16035
 Alpha virt. eigenvalues --   -0.05722  -0.04488   0.11483   0.12275   0.13926
 Alpha virt. eigenvalues --    0.14330   0.15022   0.16934   0.18066   0.18814
 Alpha virt. eigenvalues --    0.19880   0.20206   0.20686   0.21700   0.22595
 Alpha virt. eigenvalues --    0.23904   0.25994   0.26297   0.28306   0.35298
 Alpha virt. eigenvalues --    0.35535   0.51893   0.52474   0.54150   0.54547
 Alpha virt. eigenvalues --    0.55238   0.57186   0.58524   0.60014   0.60745
 Alpha virt. eigenvalues --    0.61491   0.62748   0.64442   0.66598   0.68331
 Alpha virt. eigenvalues --    0.72167   0.73202   0.74410   0.77078   0.78065
 Alpha virt. eigenvalues --    0.86557   0.86961   0.87244   0.88259   0.88686
 Alpha virt. eigenvalues --    0.90208   0.91148   0.91528   0.92513   0.93434
 Alpha virt. eigenvalues --    0.94636   0.96746   0.97319   0.98833   0.99451
 Alpha virt. eigenvalues --    1.00866   1.03400   1.05139   1.16865   1.22330
 Alpha virt. eigenvalues --    1.25105   1.27227   1.32666   1.42106   1.44480
 Alpha virt. eigenvalues --    1.46839   1.50279   1.55451   1.61559   1.68227
 Alpha virt. eigenvalues --    1.69162   1.77076   1.80123   1.83469   1.84552
 Alpha virt. eigenvalues --    1.88524   1.88979   1.92972   1.97849   1.99273
 Alpha virt. eigenvalues --    2.03398   2.05885   2.07891   2.09165   2.18960
 Alpha virt. eigenvalues --    2.20863   2.22026   2.23237   2.25515   2.27545
 Alpha virt. eigenvalues --    2.33193   2.34766   2.37010   2.38930   2.44200
 Alpha virt. eigenvalues --    2.46468   2.51322   2.55233   2.62567   2.77454
 Alpha virt. eigenvalues --    2.78569   2.81745   2.89311   2.89865   2.96558
 Alpha virt. eigenvalues --    3.88761   3.92743   4.12159   4.12853   4.27060
 Alpha virt. eigenvalues --    4.38124   4.38566   4.49654
          Condensed to atoms (all electrons):
               1          2          3          4          5          6
     1  C    4.882898   0.346070   0.368991   0.379025  -0.035988  -0.030786
     2  H    0.346070   0.672471  -0.057125  -0.037938  -0.001755   0.008635
     3  H    0.368991  -0.057125   0.635324  -0.032536   0.000213  -0.004206
     4  C    0.379025  -0.037938  -0.032536   4.864677   0.346008   0.353294
     5  H   -0.035988  -0.001755   0.000213   0.346008   0.687072  -0.063097
     6  H   -0.030786   0.008635  -0.004206   0.353294  -0.063097   0.659234
     7  N   -0.061976  -0.002651   0.004874   0.334782  -0.057331  -0.061851
     8  N    0.311603  -0.060399  -0.047020  -0.063472   0.005926   0.002856
     9  C   -0.043742  -0.007277  -0.017381   0.005774  -0.000068  -0.000677
    10  H   -0.002219   0.006721  -0.002337  -0.000155   0.000023   0.000065
    11  C    0.005962   0.000138  -0.000186  -0.043069  -0.014088  -0.009464
    12  H   -0.000262  -0.000101   0.000004  -0.000062   0.007922  -0.002324
    13  C    0.002613  -0.001415   0.005262  -0.000002  -0.000015  -0.000155
    14  H   -0.000437   0.000084   0.003152  -0.000132  -0.000001   0.000075
    15  H   -0.000095   0.000050  -0.000300  -0.000000   0.000000   0.000006
    16  H    0.000447   0.000062  -0.000437  -0.000082   0.000005   0.000089
    17  C    0.000132   0.000036   0.000007  -0.000203  -0.002182   0.007199
    18  H   -0.000064  -0.000003   0.000001   0.000757   0.000066  -0.000555
    19  H   -0.000002  -0.000000  -0.000000   0.000000   0.000084  -0.000318
    20  H   -0.000095   0.000003   0.000001  -0.000540   0.000330   0.002290
               7          8          9         10         11         12
     1  C   -0.061976   0.311603  -0.043742  -0.002219   0.005962  -0.000262
     2  H   -0.002651  -0.060399  -0.007277   0.006721   0.000138  -0.000101
     3  H    0.004874  -0.047020  -0.017381  -0.002337  -0.000186   0.000004
     4  C    0.334782  -0.063472   0.005774  -0.000155  -0.043069  -0.000062
     5  H   -0.057331   0.005926  -0.000068   0.000023  -0.014088   0.007922
     6  H   -0.061851   0.002856  -0.000677   0.000065  -0.009464  -0.002324
     7  N    6.886346   0.008594   0.000656  -0.000031   0.576739  -0.065403
     8  N    0.008594   6.894461   0.569198  -0.063662  -0.000309   0.000034
     9  C    0.000656   0.569198   4.771575   0.331519  -0.000010   0.000001
    10  H   -0.000031  -0.063662   0.331519   0.694077  -0.000001   0.000000
    11  C    0.576739  -0.000309  -0.000010  -0.000001   4.753860   0.337046
    12  H   -0.065403   0.000034   0.000001   0.000000   0.337046   0.682548
    13  C    0.000007  -0.110754   0.325328  -0.111037   0.000001  -0.000000
    14  H   -0.000001  -0.003200  -0.025985   0.003047  -0.000000  -0.000000
    15  H   -0.000000   0.006468  -0.017213   0.009315  -0.000000   0.000000
    16  H    0.000001   0.006533  -0.020156   0.005405  -0.000000   0.000000
    17  C   -0.110082  -0.000061  -0.000003   0.000000   0.317010  -0.110649
    18  H    0.002977   0.000064   0.000001   0.000000  -0.019319   0.004653
    19  H    0.006376   0.000001   0.000000   0.000000  -0.016120   0.008092
    20  H   -0.002688   0.000017   0.000000   0.000000  -0.023580   0.003649
              13         14         15         16         17         18
     1  C    0.002613  -0.000437  -0.000095   0.000447   0.000132  -0.000064
     2  H   -0.001415   0.000084   0.000050   0.000062   0.000036  -0.000003
     3  H    0.005262   0.003152  -0.000300  -0.000437   0.000007   0.000001
     4  C   -0.000002  -0.000132  -0.000000  -0.000082  -0.000203   0.000757
     5  H   -0.000015  -0.000001   0.000000   0.000005  -0.002182   0.000066
     6  H   -0.000155   0.000075   0.000006   0.000089   0.007199  -0.000555
     7  N    0.000007  -0.000001  -0.000000   0.000001  -0.110082   0.002977
     8  N   -0.110754  -0.003200   0.006468   0.006533  -0.000061   0.000064
     9  C    0.325328  -0.025985  -0.017213  -0.020156  -0.000003   0.000001
    10  H   -0.111037   0.003047   0.009315   0.005405   0.000000   0.000000
    11  C    0.000001  -0.000000  -0.000000  -0.000000   0.317010  -0.019319
    12  H   -0.000000  -0.000000   0.000000   0.000000  -0.110649   0.004653
    13  C    5.338606   0.371151   0.315431   0.355132  -0.000000  -0.000000
    14  H    0.371151   0.517103  -0.029268  -0.020087   0.000000  -0.000000
    15  H    0.315431  -0.029268   0.586944  -0.021495   0.000000  -0.000000
    16  H    0.355132  -0.020087  -0.021495   0.507769  -0.000000   0.000000
    17  C   -0.000000   0.000000   0.000000  -0.000000   5.341816   0.362741
    18  H   -0.000000  -0.000000  -0.000000   0.000000   0.362741   0.496533
    19  H   -0.000000  -0.000000   0.000000   0.000000   0.319056  -0.023847
    20  H   -0.000000  -0.000000   0.000000   0.000000   0.367751  -0.018768
              19         20
     1  C   -0.000002  -0.000095
     2  H   -0.000000   0.000003
     3  H   -0.000000   0.000001
     4  C    0.000000  -0.000540
     5  H    0.000084   0.000330
     6  H   -0.000318   0.002290
     7  N    0.006376  -0.002688
     8  N    0.000001   0.000017
     9  C    0.000000   0.000000
    10  H    0.000000   0.000000
    11  C   -0.016120  -0.023580
    12  H    0.008092   0.003649
    13  C   -0.000000  -0.000000
    14  H   -0.000000  -0.000000
    15  H    0.000000   0.000000
    16  H    0.000000   0.000000
    17  C    0.319056   0.367751
    18  H   -0.023847  -0.018768
    19  H    0.584345  -0.028047
    20  H   -0.028047   0.511780
 Mulliken charges:
               1
     1  C   -0.122075
     2  H    0.134395
     3  H    0.143699
     4  C   -0.106127
     5  H    0.126877
     6  H    0.139690
     7  N   -0.459338
     8  N   -0.456879
     9  C    0.128458
    10  H    0.129270
    11  C    0.135387
    12  H    0.134851
    13  C   -0.490152
    14  H    0.184499
    15  H    0.150157
    16  H    0.186814
    17  C   -0.492568
    18  H    0.194763
    19  H    0.150380
    20  H    0.187897
 Sum of Mulliken charges =  -0.00000
 Mulliken charges with hydrogens summed into heavy atoms:
               1
     1  C    0.156019
     4  C    0.160441
     7  N   -0.459338
     8  N   -0.456879
     9  C    0.257729
    11  C    0.270239
    13  C    0.031318
    17  C    0.040472
 Electronic spatial extent (au):  <R**2>=           1602.2923
 Charge=             -0.0000 electrons
 Dipole moment (field-independent basis, Debye):
    X=              0.2253    Y=              0.0504    Z=              1.9590  Tot=              1.9726
 Quadrupole moment (field-independent basis, Debye-Ang):
   XX=            -35.7793   YY=            -48.6340   ZZ=            -49.7720
   XY=             -1.5502   XZ=             -1.1575   YZ=             -0.8424
 Traceless Quadrupole moment (field-independent basis, Debye-Ang):
   XX=              8.9491   YY=             -3.9055   ZZ=             -5.0436
   XY=             -1.5502   XZ=             -1.1575   YZ=             -0.8424
 Octapole moment (field-independent basis, Debye-Ang**2):
  XXX=             -2.5011  YYY=              2.2488  ZZZ=              2.0353  XYY=              0.1002
  XXY=              3.7337  XXZ=             -0.3074  XZZ=              2.0509  YZZ=              0.9485
  YYZ=              1.0958  XYZ=              0.3788
 Hexadecapole moment (field-independent basis, Debye-Ang**3):
 XXXX=          -1581.6533 YYYY=           -302.2101 ZZZZ=           -143.5453 XXXY=              3.1394
 XXXZ=             -2.4930 YYYX=              0.0115 YYYZ=             -1.2857 ZZZX=             -0.9260
 ZZZY=              0.3588 XXYY=           -333.9612 XXZZ=           -302.9371 YYZZ=            -72.9235
 XXYZ=             -3.4564 YYXZ=             -0.4064 ZZXY=             -4.2913
 N-N= 3.517166344290D+02 E-N=-1.504640418133D+03  KE= 3.421011931102D+02
 D1PCM: PCM CHGder 1st derivatives, ID1Alg=3 FixD1E=F DoIter=F DoCFld=F I1PDM=0.
 Calling FoFJK, ICntrl=      2127 FMM=F ISym2X=0 I1Cent= 0 IOpClX= 0 NMat=1 NMatS=1 NMatT=0.
 ***** Axes restored to original set *****
 -------------------------------------------------------------------
 Center     Atomic                   Forces (Hartrees/Bohr)
 Number     Number              X              Y              Z
 -------------------------------------------------------------------
      1        6           0.041963284   -0.005571784    0.024127624
      2        1           0.003139455    0.018047645   -0.016670714
      3        1          -0.018647758    0.000133648    0.000974808
      4        6           0.022741304   -0.017638264   -0.045946649
      5        1          -0.011865988    0.020453027   -0.000728721
      6        1          -0.008962829   -0.010062924    0.015594126
      7        7          -0.009021732    0.022855143    0.043546949
      8        7          -0.052123662   -0.011100965   -0.010493433
      9        6           0.013628239    0.015377149    0.055906457
     10        1          -0.004298327   -0.007643066   -0.028673529
     11        6          -0.014298111   -0.059425282   -0.021077926
     12        1           0.011825912    0.025890147    0.006321442
     13        6           0.036222234   -0.001862619   -0.024874861
     14        1          -0.015462389    0.012512941    0.000926787
     15        1          -0.008780795   -0.017022015   -0.008093584
     16        1           0.003955249   -0.001910008    0.016229236
     17        6           0.011396074    0.028956809   -0.026561046
     18        1           0.003418612   -0.015541739   -0.004818795
     19        1           0.012182520    0.006513091    0.014789535
     20        1          -0.017011294   -0.002960931    0.009522295
 -------------------------------------------------------------------
 Cartesian Forces:  Max     0.059425282 RMS     0.021595489

 GradGradGradGradGradGradGradGradGradGradGradGradGradGradGradGradGradGrad
 Berny optimization.
 FormGI is forming the generalized inverse of G from B-inverse, IUseBI=4.
 Internal  Forces:  Max     0.057165823 RMS     0.013584318
 Search for a local minimum.
 Step number   1 out of a maximum of   92
 All quantities printed in internal units (Hartrees-Bohrs-Radians)
 Mixed Optimization -- RFO/linear search
 Second derivative matrix not updated -- first step.
 ITU=  0
     Eigenvalues ---    0.00237   0.00237   0.00237   0.00766   0.00766
     Eigenvalues ---    0.00952   0.00956   0.03099   0.03099   0.05064
     Eigenvalues ---    0.05064   0.05793   0.05793   0.07243   0.07243
     Eigenvalues ---    0.07243   0.07243   0.11076   0.11076   0.13638
     Eigenvalues ---    0.13638   0.16000   0.16000   0.16000   0.16000
     Eigenvalues ---    0.16000   0.16000   0.16000   0.16000   0.22000
     Eigenvalues ---    0.22000   0.22068   0.22068   0.25000   0.25000
     Eigenvalues ---    0.28519   0.28519   0.28519   0.35740   0.35740
     Eigenvalues ---    0.37230   0.37230   0.37230   0.37230   0.37230
     Eigenvalues ---    0.37230   0.37230   0.37230   0.37230   0.37230
     Eigenvalues ---    0.37230   0.37230   0.69002   0.69002
 RFO step:  Lambda=-5.10322839D-02 EMin= 2.36824151D-03
 Linear search not attempted -- first point.
 Maximum step size (   0.300) exceeded in Quadratic search.
    -- Step size scaled by   0.809
 Iteration  1 RMS(Cart)=  0.14385011 RMS(Int)=  0.00761689
 Iteration  2 RMS(Cart)=  0.02859724 RMS(Int)=  0.00028843
 Iteration  3 RMS(Cart)=  0.00031334 RMS(Int)=  0.00024682
 Iteration  4 RMS(Cart)=  0.00000005 RMS(Int)=  0.00024682
 Variable       Old X    -DE/DX   Delta X   Delta X   Delta X     New X
                                 (Linear)    (Quad)   (Total)
    R1        2.02201   0.02317   0.00000   0.04426   0.04426   2.06627
    R2        2.02201   0.01865   0.00000   0.03563   0.03563   2.05764
    R3        2.91018  -0.00798   0.00000  -0.01920  -0.01920   2.89098
    R4        2.77790   0.00204   0.00000   0.00405   0.00405   2.78195
    R5        2.02201   0.02324   0.00000   0.04440   0.04440   2.06641
    R6        2.02201   0.02046   0.00000   0.03909   0.03909   2.06110
    R7        2.77790  -0.00149   0.00000  -0.00295  -0.00295   2.77495
    R8        2.44455  -0.01979   0.00000  -0.02160  -0.02160   2.42295
    R9        2.44455  -0.01778   0.00000  -0.01941  -0.01941   2.42514
   R10        2.02201   0.02787   0.00000   0.05326   0.05326   2.07526
   R11        2.91018  -0.01321   0.00000  -0.03177  -0.03177   2.87841
   R12        2.02201   0.02759   0.00000   0.05271   0.05271   2.07472
   R13        2.91018  -0.01218   0.00000  -0.02930  -0.02930   2.88088
   R14        2.02201   0.01971   0.00000   0.03765   0.03765   2.05966
   R15        2.02201   0.01977   0.00000   0.03776   0.03776   2.05977
   R16        2.02201   0.01655   0.00000   0.03163   0.03163   2.05363
   R17        2.02201   0.01637   0.00000   0.03128   0.03128   2.05329
   R18        2.02201   0.01940   0.00000   0.03706   0.03706   2.05906
   R19        2.02201   0.01960   0.00000   0.03745   0.03745   2.05946
    A1        1.91063  -0.00021   0.00000  -0.00769  -0.00795   1.90268
    A2        1.91063  -0.00546   0.00000  -0.02100  -0.02127   1.88936
    A3        1.91063   0.00609   0.00000   0.03786   0.03795   1.94859
    A4        1.91063  -0.00057   0.00000  -0.00824  -0.00836   1.90228
    A5        1.91063  -0.00224   0.00000  -0.01048  -0.01042   1.90021
    A6        1.91063   0.00239   0.00000   0.00955   0.00954   1.92017
    A7        1.91063  -0.00351   0.00000  -0.01374  -0.01394   1.89669
    A8        1.91063  -0.00344   0.00000  -0.01669  -0.01679   1.89384
    A9        1.91063   0.00513   0.00000   0.01719   0.01722   1.92785
   A10        1.91063   0.00067   0.00000  -0.00351  -0.00379   1.90685
   A11        1.91063   0.00158   0.00000   0.01515   0.01519   1.92582
   A12        1.91063  -0.00043   0.00000   0.00159   0.00169   1.91233
   A13        2.09440   0.05685   0.00000   0.15274   0.15274   2.24713
   A14        2.09440   0.05717   0.00000   0.15359   0.15359   2.24799
   A15        2.09836   0.00332   0.00000   0.01840   0.01809   2.11645
   A16        2.09241   0.01342   0.00000   0.04005   0.03976   2.13218
   A17        2.09241  -0.01674   0.00000  -0.05845  -0.05872   2.03369
   A18        2.09241   0.00234   0.00000   0.01500   0.01468   2.10709
   A19        2.09836   0.01424   0.00000   0.04250   0.04220   2.14056
   A20        2.09241  -0.01658   0.00000  -0.05749  -0.05778   2.03464
   A21        1.91063  -0.00680   0.00000  -0.03048  -0.03048   1.88016
   A22        1.91063   0.01060   0.00000   0.04475   0.04466   1.95530
   A23        1.91063  -0.00053   0.00000  -0.00177  -0.00216   1.90847
   A24        1.91063  -0.00215   0.00000  -0.00878  -0.00848   1.90216
   A25        1.91063  -0.00014   0.00000  -0.00879  -0.00912   1.90151
   A26        1.91063  -0.00098   0.00000   0.00508   0.00464   1.91527
   A27        1.91063  -0.00114   0.00000  -0.00467  -0.00495   1.90568
   A28        1.91063   0.00956   0.00000   0.04062   0.04056   1.95119
   A29        1.91063  -0.00492   0.00000  -0.02254  -0.02258   1.88805
   A30        1.91063  -0.00082   0.00000   0.00424   0.00397   1.91460
   A31        1.91063  -0.00062   0.00000  -0.01032  -0.01060   1.90003
   A32        1.91063  -0.00206   0.00000  -0.00732  -0.00715   1.90348
    D1        1.04700  -0.00106   0.00000  -0.00774  -0.00771   1.03929
    D2        3.14140  -0.00449   0.00000  -0.03067  -0.03042   3.11098
    D3       -1.04739  -0.00398   0.00000  -0.02841  -0.02827  -1.07566
    D4       -1.04739   0.00289   0.00000   0.01959   0.01939  -1.02800
    D5        1.04700  -0.00055   0.00000  -0.00334  -0.00332   1.04368
    D6        3.14140  -0.00004   0.00000  -0.00108  -0.00117   3.14023
    D7        3.14140   0.00452   0.00000   0.03162   0.03147  -3.11032
    D8       -1.04739   0.00108   0.00000   0.00869   0.00876  -1.03864
    D9        1.04700   0.00159   0.00000   0.01095   0.01091   1.05791
   D10       -1.43629   0.00061   0.00000   0.02354   0.02376  -1.41253
   D11        0.65811   0.00271   0.00000   0.03089   0.03086   0.68897
   D12        2.75250   0.00210   0.00000   0.02023   0.02004   2.77254
   D13        3.14159   0.00096   0.00000   0.01202   0.01210  -3.12950
   D14        1.04720   0.00116   0.00000   0.00904   0.00893   1.05613
   D15       -1.04720  -0.00037   0.00000   0.00308   0.00311  -1.04409
   D16       -1.56261   0.00323   0.00000   0.02588   0.02520  -1.53741
   D17        1.57898   0.00666   0.00000   0.07163   0.07231   1.65129
   D18        1.48994  -0.01349   0.00000  -0.12719  -0.12648   1.36346
   D19       -1.65166  -0.01687   0.00000  -0.17222  -0.17293  -1.82458
   D20        1.37837   0.00023   0.00000   0.01293   0.01294   1.39131
   D21       -2.81042  -0.00008   0.00000   0.01092   0.01037  -2.80005
   D22       -0.71603   0.00489   0.00000   0.04345   0.04324  -0.67279
   D23       -1.76323  -0.00313   0.00000  -0.03194  -0.03143  -1.79466
   D24        0.33117  -0.00344   0.00000  -0.03396  -0.03400   0.29717
   D25        2.42556   0.00153   0.00000  -0.00143  -0.00114   2.42443
   D26        0.77832  -0.00453   0.00000  -0.04078  -0.04053   0.73779
   D27        2.87271  -0.00037   0.00000  -0.01357  -0.01315   2.85956
   D28       -1.31608  -0.00005   0.00000  -0.01147  -0.01142  -1.32750
   D29       -2.36328  -0.00110   0.00000   0.00497   0.00474  -2.35853
   D30       -0.26888   0.00305   0.00000   0.03218   0.03213  -0.23676
   D31        1.82551   0.00337   0.00000   0.03428   0.03385   1.85937
         Item               Value     Threshold  Converged?
 Maximum Force            0.057166     0.000450     NO 
 RMS     Force            0.013584     0.000300     NO 
 Maximum Displacement     0.396705     0.001800     NO 
 RMS     Displacement     0.156471     0.001200     NO 
 Predicted change in Energy=-2.853769D-02
 GradGradGradGradGradGradGradGradGradGradGradGradGradGradGradGradGradGrad

                          Input orientation:                          
 ---------------------------------------------------------------------
 Center     Atomic      Atomic             Coordinates (Angstroms)
 Number     Number       Type             X           Y           Z
 ---------------------------------------------------------------------
      1          6           0       -2.395454    1.674391   -0.054319
      2          1           0       -1.942913    2.171462   -0.916698
      3          1           0       -3.478986    1.752799   -0.127893
      4          6           0       -1.929098    2.393907    1.212652
      5          1           0       -2.243613    3.439727    1.157223
      6          1           0       -2.402925    1.920986    2.073715
      7          7           0       -0.469251    2.306217    1.344835
      8          7           0       -2.024154    0.251238    0.008735
      9          6           0       -2.524841   -0.739732   -0.634869
     10          1           0       -2.259901   -0.930698   -1.683364
     11          6           0        0.281929    2.772200    2.273568
     12          1           0        0.677125    3.794842    2.215284
     13          6           0       -3.464294   -1.742272    0.022735
     14          1           0       -4.456027   -1.291813    0.061283
     15          1           0       -3.520730   -2.676742   -0.535518
     16          1           0       -3.126999   -1.940285    1.036647
     17          6           0        0.722114    1.938129    3.471333
     18          1           0        0.996305    0.942970    3.132101
     19          1           0        1.563301    2.392824    3.993737
     20          1           0       -0.120891    1.856776    4.157210
 ---------------------------------------------------------------------
                    Distance matrix (angstroms):
                    1          2          3          4          5
     1  C    0.000000
     2  H    1.093421   0.000000
     3  H    1.088854   1.776798   0.000000
     4  C    1.529839   2.140982   2.147145   0.000000
     5  H    2.146463   2.449503   2.454261   1.093495   0.000000
     6  H    2.142287   3.035938   2.456272   1.090685   1.780986
     7  N    2.463147   2.702659   3.396130   1.468439   2.113859
     8  N    1.472143   2.133140   2.095206   2.459570   3.396123
     9  C    2.486316   2.982133   2.716638   3.686182   4.556156
    10  H    3.075492   3.211176   3.332689   4.421464   5.212467
    11  C    3.713842   3.935556   4.577190   2.481388   2.840806
    12  H    4.368999   4.394232   5.189767   3.124146   3.126709
    13  C    3.580774   4.302842   3.498346   4.569541   5.443366
    14  H    3.613543   4.389358   3.203133   4.614711   5.336978
    15  H    4.519973   5.112718   4.448452   5.594718   6.473607
    16  H    3.845939   4.703624   3.888305   4.500130   5.453388
    17  C    4.713705   5.139225   5.535162   3.512592   4.050363
    18  H    4.710868   5.151793   5.595678   3.787808   4.542137
    19  H    5.707420   6.037790   6.543861   4.464447   4.861524
    20  H    4.789977   5.400309   5.445156   3.496934   4.001451
                    6          7          8          9         10
     6  H    0.000000
     7  N    2.102085   0.000000
     8  N    2.682474   2.902727   0.000000
     9  C    3.798777   4.174025   1.283329   0.000000
    10  H    4.718919   4.780589   2.077438   1.098182   0.000000
    11  C    2.823641   1.282169   4.099114   5.354496   5.985788
    12  H    3.608058   2.070716   4.972213   6.240057   6.793843
    13  C    4.330414   5.206582   2.459325   1.523188   2.240534
    14  H    4.311286   5.521568   2.880586   2.125771   2.827927
    15  H    5.403396   6.138170   3.333019   2.180292   2.440474
    16  H    4.063153   5.019102   2.660008   2.144269   3.028133
    17  C    3.423375   2.465124   4.730452   5.880013   6.610105
    18  H    3.692081   2.683397   4.399669   5.424023   6.107554
    19  H    4.431711   3.339978   5.773774   6.924579   7.608689
    20  H    3.090754   2.869287   4.838389   5.956916   6.815987
                   11         12         13         14         15
    11  C    0.000000
    12  H    1.097895   0.000000
    13  C    6.283382   7.253844   0.000000
    14  H    6.622585   7.540758   1.089924   0.000000
    15  H    7.214024   8.189645   1.089984   1.774537   0.000000
    16  H    5.946283   6.982280   1.086736   1.771487   1.780195
    17  C    1.524493   2.242112   6.554707   6.991002   7.440000
    18  H    2.143244   3.012573   6.064291   6.644705   6.852543
    19  H    2.178261   2.431842   7.625259   8.079174   8.488935
    20  H    2.132692   2.857272   6.420699   6.744156   7.357539
                   16         17         18         19         20
    16  H    0.000000
    17  C    5.982095   0.000000
    18  H    5.450296   1.086554   0.000000
    19  H    7.036983   1.089609   1.779319   0.000000
    20  H    5.761274   1.089818   1.770315   1.774985   0.000000
 Stoichiometry    C6H12N2
 Framework group  C1[X(C6H12N2)]
 Deg. of freedom    54
 Full point group                 C1      NOp   1
 Largest Abelian subgroup         C1      NOp   1
 Largest concise Abelian subgroup C1      NOp   1
                         Standard orientation:                         
 ---------------------------------------------------------------------
 Center     Atomic      Atomic             Coordinates (Angstroms)
 Number     Number       Type             X           Y           Z
 ---------------------------------------------------------------------
      1          6           0        0.719676   -1.310632    0.052452
      2          1           0        0.609092   -2.014781   -0.776714
      3          1           0        1.349078   -1.760685    0.818551
      4          6           0       -0.666556   -1.042323    0.641331
      5          1           0       -1.088563   -1.989339    0.988897
      6          1           0       -0.557441   -0.364584    1.488892
      7          7           0       -1.543054   -0.432245   -0.366573
      8          7           0        1.333905   -0.046849   -0.386614
      9          6           0        2.574186    0.219723   -0.580456
     10          1           0        3.091882   -0.107951   -1.491843
     11          6           0       -2.762826   -0.055621   -0.247127
     12          1           0       -3.587106   -0.757200   -0.430760
     13          6           0        3.388070    1.051390    0.402410
     14          1           0        3.677310    0.400805    1.227645
     15          1           0        4.286988    1.462913   -0.056567
     16          1           0        2.770948    1.858198    0.788694
     17          6           0       -3.151062    1.379137    0.091729
     18          1           0       -2.526327    2.062049   -0.477424
     19          1           0       -4.200932    1.575763   -0.123588
     20          1           0       -2.969802    1.538427    1.154496
 ---------------------------------------------------------------------
 Rotational constants (GHZ):           4.0043329           0.8105774           0.7250760
 Standard basis: 6-31G(d) (6D, 7F)
 There are   144 symmetry adapted cartesian basis functions of A   symmetry.
 There are   144 symmetry adapted basis functions of A   symmetry.
   144 basis functions,   272 primitive gaussians,   144 cartesian basis functions
    31 alpha electrons       31 beta electrons
       nuclear repulsion energy       348.6490888867 Hartrees.
 NAtoms=   20 NActive=   20 NUniq=   20 SFac= 1.00D+00 NAtFMM=   60 NAOKFM=F Big=F
 Integral buffers will be    131072 words long.
 Raffenetti 2 integral format.
 Two-electron integral symmetry is turned on.
 ------------------------------------------------------------------------------
 Polarizable Continuum Model (PCM)
 =================================
 Model                : PCM.
 Atomic radii         : SMD-Coulomb.
 Polarization charges : Total charges.
 Charge compensation  : None.
 Solution method      : On-the-fly selection.
 Cavity type          : VdW (van der Waals Surface) (Alpha=1.000).
 Cavity algorithm     : GePol (No added spheres)
                        Default sphere list used, NSphG=   20.
                        Lebedev-Laikov grids with approx.  5.0 points / Ang**2.
                        Smoothing algorithm: York/Karplus (Gamma=1.0000).
                        Polarization charges: spherical gaussians, with
                                              point-specific exponents (IZeta= 3).
                        Self-potential: point-specific (ISelfS= 7).
                        Self-field    : sphere-specific E.n sum rule (ISelfD= 2).
 1st derivatives      : Analytical E(r).r(x)/FMM algorithm (CHGder, D1EAlg=3).
                        Cavity 1st derivative terms included.
 Solvent              : Toluene, Eps=   2.374100 Eps(inf)=   2.238315
 ------------------------------------------------------------------------------
 Spheres list:
 ISph  on   Nord     Re0    Alpha      Xe            Ye            Ze
    1   C      1    1.8500  1.000      0.719676     -1.310632      0.052452
    2   H      2    1.2000  1.000      0.609092     -2.014781     -0.776714
    3   H      3    1.2000  1.000      1.349078     -1.760685      0.818551
    4   C      4    1.8500  1.000     -0.666556     -1.042323      0.641331
    5   H      5    1.2000  1.000     -1.088563     -1.989339      0.988897
    6   H      6    1.2000  1.000     -0.557441     -0.364584      1.488892
    7   N      7    1.8900  1.000     -1.543054     -0.432245     -0.366573
    8   N      8    1.8900  1.000      1.333905     -0.046849     -0.386614
    9   C      9    1.8500  1.000      2.574186      0.219723     -0.580456
   10   H     10    1.2000  1.000      3.091882     -0.107951     -1.491843
   11   C     11    1.8500  1.000     -2.762826     -0.055621     -0.247127
   12   H     12    1.2000  1.000     -3.587106     -0.757200     -0.430760
   13   C     13    1.8500  1.000      3.388070      1.051390      0.402410
   14   H     14    1.2000  1.000      3.677310      0.400805      1.227645
   15   H     15    1.2000  1.000      4.286988      1.462913     -0.056567
   16   H     16    1.2000  1.000      2.770948      1.858198      0.788694
   17   C     17    1.8500  1.000     -3.151062      1.379137      0.091729
   18   H     18    1.2000  1.000     -2.526327      2.062049     -0.477424
   19   H     19    1.2000  1.000     -4.200932      1.575763     -0.123588
   20   H     20    1.2000  1.000     -2.969802      1.538427      1.154496
 ------------------------------------------------------------------------------
 ------------------------------------------------------------------------------
 Atomic radii for non-electrostatic terms: SMD-CDS.
 ------------------------------------------------------------------------------
 Nuclear repulsion after PCM non-electrostatic terms =      348.6452895967 Hartrees.
 One-electron integrals computed using PRISM.
 NBasis=   144 RedAO= T EigKep=  3.97D-03  NBF=   144
 NBsUse=   144 1.00D-06 EigRej= -1.00D+00 NBFU=   144
 Initial guess from the checkpoint file:  "CH2NCHCH3.chk"
 B after Tr=    -0.000000    0.000000   -0.000000
         Rot=    0.999715   -0.023809   -0.000044    0.001866 Ang=  -2.74 deg.
 ExpMin= 1.61D-01 ExpMax= 4.17D+03 ExpMxC= 6.27D+02 IAcc=3 IRadAn=         5 AccDes= 0.00D+00
 Harris functional with IExCor=  402 and IRadAn=       5 diagonalized for initial guess.
 HarFok:  IExCor=  402 AccDes= 0.00D+00 IRadAn=         5 IDoV= 1 UseB2=F ITyADJ=14
 ICtDFT=  3500011 ScaDFX=  1.000000  1.000000  1.000000  1.000000
 FoFCou: FMM=F IPFlag=           0 FMFlag=      100000 FMFlg1=           0
         NFxFlg=           0 DoJE=T BraDBF=F KetDBF=T FulRan=T
         wScrn=  0.000000 ICntrl=       500 IOpCl=  0 I1Cent=   200000004 NGrid=           0
         NMat0=    1 NMatS0=      1 NMatT0=    0 NMatD0=    1 NMtDS0=    0 NMtDT0=    0
 Petite list used in FoFCou.
 Requested convergence on RMS density matrix=1.00D-08 within 128 cycles.
 Requested convergence on MAX density matrix=1.00D-06.
 Requested convergence on             energy=1.00D-06.
 No special actions if energy rises.
 Inv3:  Mode=1 IEnd=     7603392.
 Iteration    1 A*A^-1 deviation from unit magnitude is 4.00D-15 for   1576.
 Iteration    1 A*A^-1 deviation from orthogonality  is 2.24D-15 for   1545    981.
 Iteration    1 A^-1*A deviation from unit magnitude is 3.77D-15 for   1576.
 Iteration    1 A^-1*A deviation from orthogonality  is 1.69D-15 for    890    676.
 Error on total polarization charges =  0.02576
 SCF Done:  E(RB3LYP) =  -345.207451975     A.U. after   14 cycles
            NFock= 14  Conv=0.50D-08     -V/T= 2.0100
 SMD-CDS (non-electrostatic) energy       (kcal/mol) =      -2.38
 (included in total energy above)
 D1PCM: PCM CHGder 1st derivatives, ID1Alg=3 FixD1E=F DoIter=F DoCFld=F I1PDM=0.
 Calling FoFJK, ICntrl=      2127 FMM=F ISym2X=0 I1Cent= 0 IOpClX= 0 NMat=1 NMatS=1 NMatT=0.
 ***** Axes restored to original set *****
 -------------------------------------------------------------------
 Center     Atomic                   Forces (Hartrees/Bohr)
 Number     Number              X              Y              Z
 -------------------------------------------------------------------
      1        6           0.035655203   -0.009212697    0.000625026
      2        1          -0.000736572    0.007284875   -0.006126975
      3        1          -0.004130339   -0.001799699   -0.000701117
      4        6           0.022174611   -0.006376829   -0.025611791
      5        1          -0.005146770    0.006079120   -0.000499575
      6        1          -0.001787145   -0.002085803    0.004861988
      7        7          -0.017118120    0.010243500    0.041566720
      8        7          -0.056870607   -0.004366972    0.007522692
      9        6           0.020296984    0.013312008    0.016407645
     10        1          -0.008995954    0.000656386   -0.012720616
     11        6          -0.007864504   -0.023382546   -0.022009651
     12        1           0.003617243    0.009924311    0.005003337
     13        6           0.022986534   -0.003458670   -0.007153356
     14        1          -0.005014660    0.003012518    0.000415656
     15        1          -0.002212786   -0.004027733   -0.001692348
     16        1          -0.001434231   -0.000303548    0.006356259
     17        6           0.009278186    0.010636919   -0.013900004
     18        1          -0.000566693   -0.005973671    0.000310016
     19        1           0.002778843    0.001113944    0.003894172
     20        1          -0.004909223   -0.001275413    0.003451921
 -------------------------------------------------------------------
 Cartesian Forces:  Max     0.056870607 RMS     0.013965040

 GradGradGradGradGradGradGradGradGradGradGradGradGradGradGradGradGradGrad
 Berny optimization.
 Using GEDIIS/GDIIS optimizer.
 FormGI is forming the generalized inverse of G from B-inverse, IUseBI=4.
 Internal  Forces:  Max     0.044192916 RMS     0.008709376
 Search for a local minimum.
 Step number   2 out of a maximum of   92
 All quantities printed in internal units (Hartrees-Bohrs-Radians)
 Mixed Optimization -- RFO/linear search
 Update second derivatives using D2CorX and points    1    2
 DE= -3.45D-02 DEPred=-2.85D-02 R= 1.21D+00
 TightC=F SS=  1.41D+00  RLast= 3.94D-01 DXNew= 5.0454D-01 1.1814D+00
 Trust test= 1.21D+00 RLast= 3.94D-01 DXMaxT set to 5.05D-01
 ITU=  1  0
 Use linear search instead of GDIIS.
     Eigenvalues ---    0.00237   0.00237   0.00237   0.00766   0.00768
     Eigenvalues ---    0.01003   0.01026   0.01722   0.03104   0.04962
     Eigenvalues ---    0.04979   0.05909   0.05946   0.06940   0.06970
     Eigenvalues ---    0.07410   0.07476   0.11047   0.11151   0.13444
     Eigenvalues ---    0.13707   0.15275   0.15993   0.15998   0.16000
     Eigenvalues ---    0.16000   0.16000   0.16000   0.16570   0.18061
     Eigenvalues ---    0.22013   0.22068   0.22099   0.22836   0.25388
     Eigenvalues ---    0.28509   0.28519   0.28607   0.34983   0.35743
     Eigenvalues ---    0.37194   0.37230   0.37230   0.37230   0.37230
     Eigenvalues ---    0.37230   0.37230   0.37230   0.37230   0.37230
     Eigenvalues ---    0.37230   0.50456   0.68580   0.69026
 RFO step:  Lambda=-3.18107018D-02 EMin= 2.36576053D-03
 Quartic linear search produced a step of  1.25932.
 Iteration  1 RMS(Cart)=  0.17575260 RMS(Int)=  0.06181597
 Iteration  2 RMS(Cart)=  0.20545441 RMS(Int)=  0.02521802
 Iteration  3 RMS(Cart)=  0.10342142 RMS(Int)=  0.00475020
 Iteration  4 RMS(Cart)=  0.00660422 RMS(Int)=  0.00062718
 Iteration  5 RMS(Cart)=  0.00002033 RMS(Int)=  0.00062706
 Iteration  6 RMS(Cart)=  0.00000001 RMS(Int)=  0.00062706
 Variable       Old X    -DE/DX   Delta X   Delta X   Delta X     New X
                                 (Linear)    (Quad)   (Total)
    R1        2.06627   0.00784   0.05574   0.00353   0.05926   2.12553
    R2        2.05764   0.00403   0.04487  -0.00786   0.03701   2.09464
    R3        2.89098  -0.00281  -0.02418  -0.00111  -0.02529   2.86569
    R4        2.78195  -0.01213   0.00510  -0.06219  -0.05709   2.72486
    R5        2.06641   0.00732   0.05591   0.00099   0.05690   2.12331
    R6        2.06110   0.00552   0.04923  -0.00346   0.04576   2.10686
    R7        2.77495  -0.01314  -0.00371  -0.06178  -0.06549   2.70946
    R8        2.42295  -0.01873  -0.02720  -0.03524  -0.06244   2.36051
    R9        2.42514  -0.01790  -0.02444  -0.03448  -0.05892   2.36622
   R10        2.07526   0.00986   0.06707   0.00626   0.07333   2.14859
   R11        2.87841  -0.00659  -0.04001  -0.01346  -0.05347   2.82494
   R12        2.07472   0.01028   0.06638   0.00865   0.07503   2.14975
   R13        2.88088  -0.00548  -0.03690  -0.00888  -0.04578   2.83510
   R14        2.05966   0.00582   0.04741  -0.00099   0.04643   2.10608
   R15        2.05977   0.00444   0.04756  -0.00756   0.04000   2.09977
   R16        2.05363   0.00554   0.03983   0.00225   0.04208   2.09571
   R17        2.05329   0.00523   0.03939   0.00103   0.04042   2.09371
   R18        2.05906   0.00448   0.04667  -0.00683   0.03984   2.09890
   R19        2.05946   0.00606   0.04716   0.00032   0.04748   2.10694
    A1        1.90268  -0.00115  -0.01001  -0.00873  -0.01858   1.88410
    A2        1.88936  -0.00170  -0.02679   0.01488  -0.01319   1.87617
    A3        1.94859   0.00394   0.04780   0.01785   0.06562   2.01421
    A4        1.90228   0.00139  -0.01053   0.01694   0.00614   1.90842
    A5        1.90021  -0.00358  -0.01312  -0.04216  -0.05487   1.84534
    A6        1.92017   0.00107   0.01201   0.00174   0.01319   1.93336
    A7        1.89669  -0.00226  -0.01756  -0.00571  -0.02388   1.87281
    A8        1.89384  -0.00005  -0.02115   0.01679  -0.00450   1.88934
    A9        1.92785   0.00277   0.02169   0.00676   0.02845   1.95630
   A10        1.90685  -0.00018  -0.00477  -0.00203  -0.00730   1.89955
   A11        1.92582   0.00147   0.01913   0.00731   0.02660   1.95242
   A12        1.91233  -0.00180   0.00213  -0.02287  -0.02049   1.89184
   A13        2.24713   0.04419   0.19234   0.16696   0.35930   2.60643
   A14        2.24799   0.03428   0.19342   0.09949   0.29291   2.54090
   A15        2.11645   0.00437   0.02278   0.02506   0.04736   2.16381
   A16        2.13218   0.00162   0.05007  -0.02310   0.02656   2.15874
   A17        2.03369  -0.00607  -0.07395  -0.00054  -0.07487   1.95882
   A18        2.10709   0.00286   0.01849   0.01648   0.03449   2.14158
   A19        2.14056   0.00421   0.05314  -0.00577   0.04695   2.18751
   A20        2.03464  -0.00715  -0.07276  -0.00926  -0.08241   1.95223
   A21        1.88016  -0.00244  -0.03838   0.00294  -0.03512   1.84504
   A22        1.95530   0.00280   0.05625  -0.01583   0.03962   1.99491
   A23        1.90847   0.00303  -0.00272   0.03414   0.03015   1.93862
   A24        1.90216  -0.00088  -0.01068  -0.00424  -0.01417   1.88799
   A25        1.90151  -0.00198  -0.01148  -0.01323  -0.02491   1.87660
   A26        1.91527  -0.00071   0.00584  -0.00400  -0.00013   1.91515
   A27        1.90568   0.00221  -0.00624   0.02812   0.02096   1.92664
   A28        1.95119   0.00271   0.05108  -0.01246   0.03807   1.98926
   A29        1.88805  -0.00133  -0.02844   0.00658  -0.02176   1.86629
   A30        1.91460  -0.00060   0.00499  -0.00361   0.00004   1.91464
   A31        1.90003  -0.00214  -0.01335  -0.01361  -0.02725   1.87278
   A32        1.90348  -0.00100  -0.00900  -0.00519  -0.01376   1.88973
    D1        1.03929  -0.00058  -0.00971   0.00540  -0.00435   1.03494
    D2        3.11098  -0.00211  -0.03831   0.00929  -0.02857   3.08240
    D3       -1.07566  -0.00267  -0.03560  -0.00417  -0.03947  -1.11513
    D4       -1.02800   0.00098   0.02442  -0.00213   0.02184  -1.00616
    D5        1.04368  -0.00055  -0.00418   0.00175  -0.00237   1.04131
    D6        3.14023  -0.00112  -0.00147  -0.01170  -0.01327   3.12696
    D7       -3.11032   0.00386   0.03963   0.03797   0.07724  -3.03308
    D8       -1.03864   0.00233   0.01103   0.04185   0.05302  -0.98562
    D9        1.05791   0.00176   0.01373   0.02840   0.04212   1.10003
   D10       -1.41253   0.00210   0.02992   0.00785   0.03923  -1.37330
   D11        0.68897   0.00079   0.03886  -0.01965   0.01861   0.70758
   D12        2.77254   0.00094   0.02524  -0.02369   0.00068   2.77323
   D13       -3.12950   0.00022   0.01523  -0.00653   0.00918  -3.12032
   D14        1.05613   0.00029   0.01125  -0.00850   0.00222   1.05835
   D15       -1.04409   0.00074   0.00392   0.00398   0.00796  -1.03613
   D16       -1.53741   0.00777   0.03174   0.18826   0.21879  -1.31862
   D17        1.65129   0.01003   0.09106   0.15044   0.24270   1.89399
   D18        1.36346  -0.02138  -0.15927  -0.39295  -0.55092   0.81254
   D19       -1.82458  -0.02361  -0.21777  -0.35523  -0.57430  -2.39889
   D20        1.39131   0.00093   0.01630   0.00765   0.02384   1.41515
   D21       -2.80005  -0.00005   0.01306  -0.00518   0.00635  -2.79370
   D22       -0.67279   0.00302   0.05445   0.00295   0.05755  -0.61524
   D23       -1.79466  -0.00094  -0.03959   0.04437   0.00567  -1.78899
   D24        0.29717  -0.00193  -0.04282   0.03154  -0.01182   0.28534
   D25        2.42443   0.00114  -0.00143   0.03967   0.03938   2.46381
   D26        0.73779  -0.00263  -0.05104   0.00691  -0.04407   0.69372
   D27        2.85956  -0.00010  -0.01656   0.01343  -0.00199   2.85757
   D28       -1.32750  -0.00055  -0.01438   0.00368  -0.01054  -1.33803
   D29       -2.35853  -0.00071   0.00597  -0.03009  -0.02496  -2.38349
   D30       -0.23676   0.00182   0.04046  -0.02357   0.01711  -0.21964
   D31        1.85937   0.00137   0.04263  -0.03332   0.00857   1.86794
         Item               Value     Threshold  Converged?
 Maximum Force            0.044193     0.000450     NO 
 RMS     Force            0.008709     0.000300     NO 
 Maximum Displacement     1.134781     0.001800     NO 
 RMS     Displacement     0.427729     0.001200     NO 
 Predicted change in Energy=-5.388735D-02
 GradGradGradGradGradGradGradGradGradGradGradGradGradGradGradGradGradGrad

                          Input orientation:                          
 ---------------------------------------------------------------------
 Center     Atomic      Atomic             Coordinates (Angstroms)
 Number     Number       Type             X           Y           Z
 ---------------------------------------------------------------------
      1          6           0       -2.387739    1.925203   -0.251454
      2          1           0       -1.709807    2.362741   -1.035101
      3          1           0       -3.434938    2.118060   -0.559369
      4          6           0       -2.105727    2.648930    1.050979
      5          1           0       -2.310015    3.740180    0.877967
      6          1           0       -2.814490    2.267959    1.822682
      7          7           0       -0.767886    2.423058    1.514551
      8          7           0       -2.288762    0.497531   -0.075026
      9          6           0       -2.614073   -0.624105   -0.526669
     10          1           0       -2.538477   -0.913712   -1.623551
     11          6           0        0.117118    2.611693    2.375656
     12          1           0        0.687162    3.591952    2.466651
     13          6           0       -3.065399   -1.763513    0.329345
     14          1           0       -4.141611   -1.570811    0.545502
     15          1           0       -2.982208   -2.760152   -0.154853
     16          1           0       -2.526499   -1.772012    1.298573
     17          6           0        0.620313    1.581164    3.342927
     18          1           0        0.710856    0.595742    2.844642
     19          1           0        1.585129    1.847259    3.824546
     20          1           0       -0.152250    1.479760    4.140400
 ---------------------------------------------------------------------
                    Distance matrix (angstroms):
                    1          2          3          4          5
     1  C    0.000000
     2  H    1.124782   0.000000
     3  H    1.108437   1.806175   0.000000
     4  C    1.516456   2.142519   2.154494   0.000000
     5  H    2.139105   2.432574   2.441855   1.123607   0.000000
     6  H    2.145142   3.065327   2.466088   1.114902   1.820553
     7  N    2.447561   2.718746   3.392246   1.433784   2.125608
     8  N    1.441933   2.176222   2.043141   2.435140   3.379855
     9  C    2.574091   3.161875   2.862579   3.668807   4.594827
    10  H    3.156709   3.430468   3.335831   4.475801   5.288525
    11  C    3.694223   3.877228   4.634129   2.587895   3.067170
    12  H    4.429577   4.417995   5.321735   3.270114   3.395432
    13  C    3.795152   4.552507   3.999123   4.572896   5.582314
    14  H    3.991657   4.887209   3.915086   4.712382   5.627779
    15  H    4.723905   5.351437   4.915847   5.610741   6.616107
    16  H    4.011389   4.817593   4.405664   4.447817   5.532453
    17  C    4.699607   5.020703   5.653427   3.718124   4.395930
    18  H    4.577615   4.902479   5.576052   3.919942   4.783404
    19  H    5.692409   5.893937   6.670316   4.685912   5.238094
    20  H    4.948152   5.476445   5.768128   3.837650   4.517623
                    6          7          8          9         10
     6  H    0.000000
     7  N    2.075472   0.000000
     8  N    2.648037   2.923606   0.000000
     9  C    3.731440   4.106116   1.252148   0.000000
    10  H    4.698482   4.910877   2.109951   1.136986   0.000000
    11  C    3.003042   1.249127   4.032839   5.133545   5.956033
    12  H    3.798581   2.095226   4.989157   6.134594   6.887344
    13  C    4.306481   4.920433   2.424665   1.494893   2.193995
    14  H    4.257769   5.317148   2.845372   2.092648   2.776078
    15  H    5.405615   5.878418   3.331627   2.199197   2.400690
    16  H    4.083992   4.553897   2.663479   2.157978   3.045593
    17  C    3.818469   2.445167   4.617292   5.504383   6.392830
    18  H    4.033457   2.700908   4.187101   4.889674   5.727248
    19  H    4.851917   3.347283   5.659988   6.532534   7.369454
    20  H    3.616711   2.857254   4.826933   5.680524   6.681761
                   11         12         13         14         15
    11  C    0.000000
    12  H    1.137601   0.000000
    13  C    5.784310   6.879738   0.000000
    14  H    6.243364   7.325434   1.114491   0.000000
    15  H    6.698211   7.790108   1.111152   1.802567   0.000000
    16  H    5.231223   6.361142   1.109003   1.793373   1.815638
    17  C    1.500269   2.194447   5.818335   6.358967   6.637745
    18  H    2.153261   3.020051   5.113991   5.790202   5.822175
    19  H    2.199704   2.386248   6.847008   7.431749   7.610810
    20  H    2.113800   2.822659   5.790458   6.176106   6.665937
                   16         17         18         19         20
    16  H    0.000000
    17  C    5.032455   0.000000
    18  H    4.298495   1.107945   0.000000
    19  H    6.032010   1.110690   1.814072   0.000000
    20  H    4.928190   1.114943   1.790371   1.803692   0.000000
 Stoichiometry    C6H12N2
 Framework group  C1[X(C6H12N2)]
 Deg. of freedom    54
 Full point group                 C1      NOp   1
 Largest Abelian subgroup         C1      NOp   1
 Largest concise Abelian subgroup C1      NOp   1
                         Standard orientation:                         
 ---------------------------------------------------------------------
 Center     Atomic      Atomic             Coordinates (Angstroms)
 Number     Number       Type             X           Y           Z
 ---------------------------------------------------------------------
      1          6           0        0.666650   -1.556149   -0.143632
      2          1           0        0.436788   -2.069606   -1.117623
      3          1           0        1.320302   -2.226296    0.449897
      4          6           0       -0.646596   -1.357964    0.588318
      5          1           0       -1.099263   -2.374529    0.743824
      6          1           0       -0.426915   -0.905698    1.583407
      7          7           0       -1.532422   -0.481842   -0.121230
      8          7           0        1.383033   -0.309761   -0.255355
      9          6           0        2.499805    0.227255   -0.435100
     10          1           0        3.230578   -0.083250   -1.248916
     11          6           0       -2.626549    0.117250   -0.186748
     12          1           0       -3.601601   -0.409945   -0.442627
     13          6           0        2.987176    1.407295    0.342513
     14          1           0        3.371957    0.996775    1.304546
     15          1           0        3.810232    1.969918   -0.148091
     16          1           0        2.153564    2.097779    0.583784
     17          6           0       -2.816021    1.597374   -0.031371
     18          1           0       -1.996353    2.146470   -0.535534
     19          1           0       -3.796442    1.967933   -0.398922
     20          1           0       -2.743915    1.821306    1.058470
 ---------------------------------------------------------------------
 Rotational constants (GHZ):           3.0138942           0.9473982           0.7634354
 Standard basis: 6-31G(d) (6D, 7F)
 There are   144 symmetry adapted cartesian basis functions of A   symmetry.
 There are   144 symmetry adapted basis functions of A   symmetry.
   144 basis functions,   272 primitive gaussians,   144 cartesian basis functions
    31 alpha electrons       31 beta electrons
       nuclear repulsion energy       350.5091708969 Hartrees.
 NAtoms=   20 NActive=   20 NUniq=   20 SFac= 1.00D+00 NAtFMM=   60 NAOKFM=F Big=F
 Integral buffers will be    131072 words long.
 Raffenetti 2 integral format.
 Two-electron integral symmetry is turned on.
 ------------------------------------------------------------------------------
 Polarizable Continuum Model (PCM)
 =================================
 Model                : PCM.
 Atomic radii         : SMD-Coulomb.
 Polarization charges : Total charges.
 Charge compensation  : None.
 Solution method      : On-the-fly selection.
 Cavity type          : VdW (van der Waals Surface) (Alpha=1.000).
 Cavity algorithm     : GePol (No added spheres)
                        Default sphere list used, NSphG=   20.
                        Lebedev-Laikov grids with approx.  5.0 points / Ang**2.
                        Smoothing algorithm: York/Karplus (Gamma=1.0000).
                        Polarization charges: spherical gaussians, with
                                              point-specific exponents (IZeta= 3).
                        Self-potential: point-specific (ISelfS= 7).
                        Self-field    : sphere-specific E.n sum rule (ISelfD= 2).
 1st derivatives      : Analytical E(r).r(x)/FMM algorithm (CHGder, D1EAlg=3).
                        Cavity 1st derivative terms included.
 Solvent              : Toluene, Eps=   2.374100 Eps(inf)=   2.238315
 ------------------------------------------------------------------------------
 Spheres list:
 ISph  on   Nord     Re0    Alpha      Xe            Ye            Ze
    1   C      1    1.8500  1.000      0.666650     -1.556149     -0.143632
    2   H      2    1.2000  1.000      0.436788     -2.069606     -1.117623
    3   H      3    1.2000  1.000      1.320302     -2.226296      0.449897
    4   C      4    1.8500  1.000     -0.646596     -1.357964      0.588318
[...]
 1077370,-0.00246730,-0.00794719,0.00075124,0.00057297,-0.00122841,-0.0
 0055237,0.00067167,0.00129644,-0.00042077,0.00092785,-0.00129182,-0.00
 005999,0.55927185,0.01443157,-0.17316329,0.06362441,-0.00672182,-0.006
 88570,0.00411089,0.00161232,-0.02190269,0.01520967,-0.01036188,-0.0378
 0756,0.00421769,-0.00122296,-0.00282224,-0.00312334,0.00016084,0.00266
 074,0.00240777,0.00195064,0.00034793,0.00095141,0.29884790,0.50178542,
 -0.00518542,0.03497438,-0.10703265,0.00210428,0.02131860,-0.00648416,-
 0.00187796,0.02368040,-0.00952736,-0.00221273,-0.02025643,0.01559409,-
 0.00136698,-0.00548889,-0.00392770,-0.00030899,0.00046923,0.00133797,0
 .00089944,-0.00019537,0.00183464,0.14398514,-0.01794682,0.20548349,-0.
 02103144,-0.01124075,-0.00888327,0.00197543,0.00056649,-0.00105735,0.0
 0377217,0.00804320,-0.00190293,0.00077147,0.00280852,0.00118115,0.0006
 7116,0.00082694,0.00020088,0.00001284,-0.00059579,-0.00038031,-0.00022
 718,0.00017348,0.00024741,-0.44202477,-0.25674890,-0.11790299,0.695805
 88,-0.04206858,-0.04085407,-0.00488033,0.00014924,-0.00168330,-0.00014
 048,-0.00337626,0.00262090,-0.00402411,-0.00123515,-0.00272643,0.00370
 253,0.00010715,-0.00058933,-0.00090027,0.00035946,-0.00006141,-0.00033
 133,0.00026169,0.00040684,0.00071293,-0.21228932,-0.24215031,-0.036103
 94,0.22212248,0.60807811,0.00955747,0.01693457,-0.00149245,0.00157775,
 0.00340548,-0.00133349,0.00449997,0.00350472,0.00031857,-0.00008522,0.
 00092122,-0.00131287,-0.00001690,0.00047925,0.00056014,-0.00007368,-0.
 00005349,0.00044915,-0.00024609,-0.00029850,-0.00022920,-0.14376541,-0
 .06634358,-0.10894329,0.22386630,-0.08782085,0.36981221,-0.00031494,0.
 00755478,0.00261358,-0.00024771,-0.00065028,0.00023983,0.00051749,-0.0
 0199080,0.00165402,0.00041203,0.00038927,-0.00017128,-0.00001366,-0.00
 008044,0.00001799,-0.00001656,0.00007911,-0.00003354,0.00008368,-0.000
 14819,-0.00001873,-0.02614264,-0.00371908,-0.03490049,-0.15097604,0.05
 672667,-0.09469788,0.16897528,-0.00249740,0.00222901,-0.00824576,0.000
 32386,0.00038831,0.00004951,0.00167319,0.00049547,0.00050302,-0.000155
 36,-0.00024688,0.00032513,-0.00001948,-0.00007611,-0.00007469,0.000002
 50,-0.00004559,0.00001657,-0.00007499,-0.00010098,-0.00021078,-0.01959
 265,0.01089474,-0.00256526,0.05779645,-0.09752946,0.06165279,-0.053645
 87,0.09363043,0.00770490,-0.00136669,-0.00409177,0.00065934,0.00079970
 ,0.00004007,0.00014944,-0.00208454,0.00038208,-0.00042661,-0.00064105,
 0.00060365,-0.00005822,-0.00018802,-0.00029093,0.00004513,-0.00011028,
 -0.00012829,0.00015738,0.00006724,-0.00014841,-0.02633256,0.00800800,0
 .00802086,-0.09568586,0.06095939,-0.14961845,0.12348864,-0.07245124,0.
 14646064,-0.00291517,0.00220601,-0.00165083,0.00032418,-0.00016648,-0.
 00031474,0.00001000,-0.00118754,-0.00095734,-0.01786816,0.01079080,-0.
 04291471,-0.00307830,0.00079168,-0.00279489,0.00155858,0.00144097,-0.0
 0657708,-0.11059211,-0.00596878,0.03204550,-0.00015862,0.00037937,0.00
 026425,-0.00022984,-0.00023685,-0.00001236,0.00014030,-0.00005755,-0.0
 0013781,0.59315253,-0.00118635,-0.00163380,-0.00120419,0.00007520,0.00
 011854,0.00013925,-0.00002759,-0.00015142,-0.00012752,0.00203216,-0.00
 066336,0.01210830,0.00114368,0.00013083,0.00084584,-0.00194117,-0.0002
 5313,-0.00107263,0.00799037,-0.08127448,0.13125726,-0.00045065,0.00064
 912,-0.00074659,-0.00010968,0.00016095,-0.00014521,0.00000233,-0.00015
 436,-0.00003518,-0.01024940,0.21399424,-0.00041697,0.00190915,0.000351
 65,-0.00051247,-0.00003397,-0.00046560,0.00036532,-0.00001950,0.000524
 37,-0.00184269,0.01026226,-0.04278014,-0.00036175,-0.00198903,0.001077
 27,0.00761497,-0.00152749,0.00556402,-0.02689042,0.13247879,-0.6042816
 6,0.00041611,0.00045386,-0.00007673,-0.00032734,-0.00087624,0.00019479
 ,0.00029163,0.00010102,0.00011756,-0.00391204,-0.16716755,0.87283523,0
 .00012764,-0.00032522,-0.00020003,-0.00025911,-0.00007935,-0.00018655,
 0.00000827,0.00011850,0.00003652,0.00481225,0.00077869,-0.00571104,0.0
 0003256,-0.00000556,-0.00012084,0.00154684,-0.00035109,0.00195569,-0.0
 0123521,-0.00120917,0.00972275,0.00002411,-0.00014041,-0.00026310,0.00
 008284,0.00004946,0.00003503,-0.00006103,0.00003707,0.00003840,-0.2362
 0697,-0.01750529,0.09327565,0.25245963,-0.00076916,0.00089825,-0.00075
 925,0.00012628,-0.00011183,-0.00024505,0.00012827,-0.00019641,-0.00028
 814,-0.00266895,-0.00937115,-0.00260943,0.00048679,-0.00012373,0.00100
 291,0.00082800,-0.00047981,-0.00048852,-0.00579514,0.02577320,0.014400
 84,0.00011329,0.00000562,0.00017467,-0.00004102,-0.00010326,-0.0000153
 2,0.00005935,0.00001374,0.00001945,-0.01765095,-0.05543792,0.01140754,
 0.02062055,0.03012879,-0.00052276,0.00034502,-0.00014390,0.00001574,0.
 00016644,0.00027308,-0.00002735,-0.00020967,-0.00015606,0.00630747,-0.
 00325871,0.00219630,-0.00022653,0.00003392,0.00052135,-0.00240931,-0.0
 0013042,0.00046132,0.03107458,0.01349859,-0.03227909,-0.00013354,0.000
 05741,0.00018516,-0.00002262,-0.00007505,-0.00002178,0.00003707,-0.000
 01924,-0.00002127,0.09100996,0.01147882,-0.10860563,-0.10982205,-0.022
 11921,0.12819439,0.00333193,-0.00260068,-0.00853531,0.00015827,0.00066
 216,0.00021874,0.00048856,-0.00104528,0.00078023,-0.00026743,-0.002146
 59,0.00180720,-0.00027810,-0.00068458,-0.00066424,-0.00000011,0.000057
 39,-0.00002355,0.00024726,0.00003018,-0.00010138,-0.01334282,-0.035700
 99,0.01375871,-0.08607229,-0.01041837,-0.00099629,0.00671937,0.0183971
 5,-0.00965624,-0.00004500,-0.00001360,0.00023967,0.00004635,-0.0000018
 3,-0.00003344,0.57792416,-0.00299877,0.00609308,0.00508152,-0.00058774
 ,-0.00186535,0.00052546,-0.00011304,-0.00021268,0.00001683,0.00011904,
 0.00079566,-0.00045976,0.00003647,0.00010557,0.00014829,-0.00002734,0.
 00000246,-0.00011310,-0.00002396,-0.00011284,-0.00014714,-0.01802330,-
 0.02797539,0.00028196,-0.01342806,-0.19768089,0.05678513,-0.00402606,-
 0.00621865,0.00418153,0.00007353,-0.00000620,0.00011691,-0.00003220,0.
 00002599,0.00001150,-0.01098487,0.50555253,-0.00874400,0.00444148,0.01
 091005,-0.00041755,-0.00285903,0.00089206,0.00019386,-0.00035498,0.000
 22468,0.00073648,0.00161222,-0.00089009,0.00011866,0.00031001,0.000321
 15,-0.00000894,0.00003041,-0.00017786,-0.00004039,-0.00001795,0.000028
 70,0.00518422,-0.01097750,0.00400681,0.00033952,0.05897873,-0.10791603
 ,0.00232800,0.01919776,-0.00235925,0.00013975,0.00003498,0.00003860,-0
 .00004170,0.00000757,0.00001215,0.03302230,0.00926266,0.55382600,0.000
 51037,-0.00054005,-0.00047314,0.00001011,0.00012040,-0.00004516,0.0000
 3220,-0.00015116,0.00005561,-0.00006007,-0.00008061,0.00028363,-0.0000
 1300,-0.00003833,-0.00008131,0.00002589,-0.00000554,-0.00004161,0.0000
 5321,-0.00001237,-0.00012568,0.00011191,-0.00075851,0.00220179,-0.0052
 7856,-0.00227335,0.00053638,0.00030581,-0.00071748,0.00010241,-0.00008
 545,-0.00002205,0.00009891,0.00002822,0.00000168,-0.00001906,-0.250014
 40,0.00235538,0.10786208,0.27002119,0.00105050,-0.00151169,-0.00301128
 ,0.00009616,0.00033147,0.00000490,0.00011407,-0.00020777,0.00016746,-0
 .00015180,-0.00067129,0.00082895,-0.00009342,-0.00026156,-0.00025441,0
 .00002750,0.00001233,-0.00004817,0.00014281,-0.00001910,-0.00011948,-0
 .00086552,-0.00293555,0.00336516,-0.03159298,0.00078050,0.01378775,0.0
 0151616,0.00037722,-0.00093690,-0.00007413,-0.00001514,0.00013701,0.00
 002709,-0.00000249,-0.00002523,0.00035453,-0.04530118,0.00414230,0.001
 70061,0.04988784,0.00005525,-0.00002797,0.00107301,-0.00003601,0.00004
 320,-0.00011326,-0.00008849,0.00006224,-0.00008836,0.00000374,0.000219
 45,-0.00034508,0.00006056,0.00012471,0.00008935,0.00000008,-0.00003670
 ,0.00000894,-0.00003531,0.00002962,0.00004445,-0.00014929,0.00070869,-
 0.00085232,0.00974955,-0.00192299,-0.00447038,-0.00081100,0.00022177,0
 .00030501,-0.00002926,0.00000208,-0.00005279,0.00000668,-0.00000248,0.
 00000045,0.10833302,0.00347694,-0.10640892,-0.12093415,-0.00209272,0.1
 1069456,-0.00056966,0.00007912,0.00121744,-0.00003855,-0.00019701,0.00
 006932,-0.00002721,-0.00004076,0.00004400,-0.00000228,0.00020547,-0.00
 008974,0.00002466,0.00003353,0.00002693,0.00000268,0.00000404,-0.00001
 590,-0.00001840,-0.00000981,-0.00001248,0.00077882,-0.00198163,0.00011
 565,-0.00291389,-0.00648640,-0.00537388,-0.00000861,0.00010727,0.00014
 174,0.00001169,-0.00000118,-0.00000619,-0.00001255,0.00000390,0.000004
 81,-0.04578378,-0.00795820,-0.01498229,0.00203887,0.02057050,0.0223414
 8,0.04664419,-0.00233989,0.00116537,0.00215737,-0.00011829,-0.00093835
 ,0.00030881,0.00011680,-0.00018660,0.00008785,0.00021296,0.00032832,0.
 00011545,-0.00002602,-0.00004185,-0.00000294,-0.00000404,0.00003119,-0
 .00006834,0.00000896,-0.00005301,-0.00011550,0.00181974,-0.00409234,0.
 00075105,-0.00458386,-0.01950110,-0.02472058,0.00011010,0.00105638,0.0
 0146299,0.00004026,-0.00001001,0.00010810,-0.00001041,0.00000701,-0.00
 000153,-0.00802093,-0.16303181,-0.12936110,0.00071302,0.00043486,0.000
 15313,0.01280988,0.17720275,0.00109584,-0.00055216,-0.00089061,0.00007
 515,0.00041712,-0.00015713,-0.00003467,0.00002135,0.00002932,-0.000059
 60,-0.00011588,-0.00003453,0.00000218,-0.00001128,-0.00000573,-0.00000
 914,-0.00000749,0.00003222,-0.00004266,-0.00000152,0.00004700,0.000490
 75,0.00116915,-0.00013799,0.00029054,0.00926117,0.01325510,-0.00014882
 ,-0.00118236,-0.00004681,0.00003895,0.00000580,-0.00005808,-0.00002071
 ,0.00000780,0.00001485,-0.01435872,-0.12714227,-0.19295114,-0.00112271
 ,-0.01044143,-0.01235115,0.01294350,0.14128199,0.20698458,0.00013225,-
 0.00036932,0.00041034,0.00001572,0.00002789,-0.00001224,-0.00026542,-0
 .00007022,-0.00010993,-0.00000455,0.00005303,-0.00011742,0.00000955,0.
 00003223,0.00003330,-0.00000528,0.00000044,0.00000806,-0.00004229,0.00
 001861,0.00005858,0.00070293,0.00021707,0.00092413,0.00551567,-0.00149
 751,0.00513029,0.00064491,-0.00156894,-0.00020185,0.00004350,0.0000119
 8,-0.00008474,-0.00002315,0.00000034,0.00001257,-0.19301908,0.05564473
 ,-0.12565889,-0.01768842,0.00720579,-0.01849502,-0.00012823,-0.0006882
 2,0.00085250,0.20410525,-0.00038731,-0.00028638,-0.00028273,-0.0000322
 8,0.00000262,-0.00002681,-0.00024097,0.00034942,-0.00033525,-0.0000257
 6,-0.00000941,0.00008014,-0.00000703,-0.00000294,-0.00000577,0.0000046
 5,0.00000046,0.00000136,0.00002646,0.00000163,-0.00005986,0.00116288,0
 .00351795,-0.00164417,0.02604402,-0.00919931,0.02195301,-0.00213076,-0
 .00472558,0.00231891,-0.00006153,-0.00001126,0.00003276,0.00003055,-0.
 00001944,-0.00002288,0.05207983,-0.07017067,0.04556938,-0.00029923,-0.
 00092455,-0.00094284,-0.01713799,0.00761329,-0.01270419,-0.05901448,0.
 07384676,0.00046108,-0.00020272,0.00022122,-0.00000109,0.00009348,-0.0
 0005313,-0.00006546,-0.00025359,0.00009768,0.00000159,-0.00001747,-0.0
 0002073,0.00000538,0.00001288,-0.00000650,0.00000943,-0.00000982,-0.00
 000508,0.00002657,0.00000536,0.00001215,0.00043829,-0.00223539,0.00069
 324,-0.00984863,0.00336908,-0.00930756,0.00011026,0.00270483,0.0008073
 4,-0.00003579,0.00001094,0.00001003,0.00001217,-0.00000043,-0.00000319
 ,-0.12365658,0.04798877,-0.15956178,0.01172681,-0.00543899,0.01243799,
 -0.01642781,0.00788490,-0.01374974,0.13722907,-0.05390220,0.16841717,0
 .00043442,-0.00015221,-0.00024448,-0.00004866,-0.00006934,-0.00004293,
 0.00002864,0.00012807,0.00008646,0.00150994,-0.00000221,0.00303553,0.0
 0031294,-0.00009177,-0.00024268,0.00055136,-0.00001844,-0.00015963,0.0
 0434098,0.00326179,-0.01354841,0.00001510,0.00003815,0.00002798,-0.000
 00391,-0.00001164,0.00002240,0.00000790,0.00001518,0.00001992,-0.20298
 520,0.01575169,-0.05253923,-0.01847362,0.00412859,-0.01405876,0.000012
 08,-0.00000761,-0.00002013,0.00001172,0.00001511,0.00000084,0.00000063
 ,0.00000026,-0.00000398,-0.00000605,0.00000609,0.00000330,0.53782232,0
 .00305190,-0.00169753,0.00168165,-0.00010079,-0.00009159,-0.00003378,0
 .00010385,0.00074102,0.00079786,-0.00033958,0.01800503,0.00368953,-0.0
 0211346,-0.00003435,-0.00166773,0.00010845,-0.00002568,-0.00001151,0.0
 0827825,-0.00666995,0.00783288,-0.00007470,-0.00018619,-0.00006696,-0.
 00003159,0.00007009,-0.00004891,-0.00004885,-0.00000258,-0.00000366,0.
 01503686,-0.07896624,0.00924563,-0.00293410,0.00663891,-0.00058136,0.0
 0000828,0.00000826,-0.00002426,0.00000423,0.00001810,-0.00001325,0.000
 00521,0.00001046,0.00000362,0.00000446,0.00000292,-0.00001189,0.012125
 05,0.53787611,-0.00044147,0.00037706,0.00020472,0.00010881,0.00004573,
 0.00013951,-0.00011202,-0.00029952,-0.00024297,0.00268718,0.00421018,0
 .00061512,-0.00167600,0.00033786,-0.00103992,-0.00129729,0.00009537,-0
 .00009895,-0.03565759,0.00810597,-0.03424801,-0.00013239,-0.00014299,-
 0.00012051,0.00009928,0.00006653,0.00003737,-0.00000807,-0.00001342,-0
 .00004344,-0.04851923,0.00937117,-0.11060729,0.01459142,-0.00138511,0.
 01005004,-0.00007991,-0.00001867,0.00002445,-0.00002768,-0.00004572,0.
 00001572,0.00000036,-0.00002489,0.00001003,0.00001866,-0.00000987,0.00
 000075,-0.04739939,-0.00438484,0.56269414,-0.00002966,0.00003464,0.000
 02461,-0.00000566,-0.00001998,-0.00003863,-0.00001779,-0.00001191,-0.0
 0001782,0.00050927,0.00009417,-0.00054738,-0.00004160,0.00002183,-0.00
 008298,0.00048964,-0.00004241,0.00011966,0.00388178,-0.00040750,0.0017
 4626,0.00002366,-0.00006037,-0.00009199,0.00002661,0.00001562,0.000018
 74,-0.00001197,0.00000504,0.00001069,-0.02553946,-0.00431678,0.0196609
 3,-0.00368172,0.00102400,-0.00349136,-0.00000443,-0.00000685,-0.000009
 84,0.00000889,0.00000181,0.00000606,-0.00000362,-0.00000737,-0.0000056
 5,-0.00000589,0.00000549,0.00000785,-0.22160136,-0.02727322,0.12610148
 ,0.24084954,-0.00011292,0.00004930,0.00000064,0.00000119,0.00001775,-0
 .00000076,0.00000535,-0.00002622,-0.00001696,0.00013918,-0.00023046,0.
 00000522,0.00004424,0.00000121,-0.00000409,-0.00006519,-0.00001633,0.0
 0007240,-0.00027574,-0.00073914,-0.00067093,0.00003588,-0.00001442,-0.
 00002403,-0.00001534,-0.00001836,0.00000694,0.00000576,0.00000311,0.00
 000884,0.00464433,-0.00005286,-0.00372139,0.00083809,0.00192338,0.0009
 9504,0.00000423,-0.00000079,-0.00000346,0.00000593,0.00000046,0.000000
 67,-0.00000437,-0.00000034,-0.00000358,-0.00000530,0.00000196,0.000007
 55,-0.02850380,-0.05500399,0.02045747,0.02994477,0.05223307,0.00004686
 ,-0.00003386,-0.00001270,-0.00000430,-0.00001840,-0.00002859,0.0000148
 1,0.00002575,0.00001852,-0.00046681,0.00002066,-0.00014615,0.00009371,
 -0.00001269,-0.00000609,0.00027427,0.00005560,-0.00028617,0.00054483,-
 0.00056387,0.00163989,0.00002264,0.00000179,0.00001333,-0.00001760,-0.
 00000685,-0.00000812,0.00000348,-0.00000090,0.00000425,-0.01572231,-0.
 00298973,0.01254154,-0.00275015,0.00096060,-0.00148228,0.00000381,0.00
 000441,-0.00000064,0.00000011,0.00000207,-0.00000295,0.00000079,0.0000
 0312,0.00000212,0.00000055,-0.00000254,-0.00000204,0.13069923,0.020433
 75,-0.14612953,-0.13928437,-0.02291746,0.15340697,0.00012592,0.0000220
 3,0.00040801,0.00002471,-0.00000533,0.00002279,-0.00003791,-0.00003648
 ,-0.00001624,0.00069401,0.00280290,-0.00017822,-0.00077471,0.00009726,
 -0.00046911,-0.00022675,-0.00002997,0.00004368,-0.00312467,-0.00066710
 ,-0.00110935,-0.00007082,-0.00015539,-0.00014753,0.00007477,0.00006823
 ,0.00001700,-0.00002342,-0.00000792,-0.00001212,0.00178642,-0.01977138
 ,-0.02353147,0.00041801,0.00098005,0.00146259,-0.00004089,-0.00001276,
 -0.00000311,-0.00000671,-0.00001881,0.00001037,-0.00000105,-0.00001609
 ,0.00000330,0.00000590,-0.00000142,0.00000405,-0.05140888,-0.00951755,
 -0.00881478,0.00315415,0.01830267,0.01869643,0.04981489,-0.00015778,0.
 00005415,-0.00006053,-0.00000174,0.00000704,0.00001388,-0.00002226,-0.
 00002746,-0.00004867,0.00027771,-0.00103065,-0.00007335,0.00014279,-0.
 00002531,0.00010041,0.00000153,-0.00000455,0.00002897,0.00070680,0.000
 11778,0.00079617,-0.00004221,0.00001457,-0.00002919,0.00003625,0.00001
 735,0.00001313,-0.00000803,0.00000156,-0.00001020,0.00044080,0.0050790
 9,0.00710069,-0.00060198,0.00005917,-0.00030198,0.00000118,-0.00001039
 ,0.00000853,-0.00000766,-0.00000225,0.00000128,-0.00000062,-0.00000270
 ,-0.00000180,0.00000411,0.00000659,-0.00000333,-0.00861165,-0.15014497
 ,-0.12908877,0.00138006,0.00347129,0.00498182,0.00796681,0.16251509,0.
 00024462,0.00000284,0.00027752,0.00002721,-0.00002392,0.00001699,-0.00
 002958,-0.00001277,0.00000579,-0.00018197,0.00211083,0.00014619,-0.000
 42530,0.00004549,-0.00026474,-0.00025477,0.00003187,-0.00003341,-0.003
 36937,-0.00169578,-0.00063819,-0.00008610,-0.00007752,-0.00009832,0.00
 007064,0.00005648,0.00002072,-0.00002267,-0.00000121,-0.00001413,-0.00
 005884,-0.00869986,-0.01589680,-0.00042760,0.00072590,0.00054466,-0.00
 002319,-0.00001266,-0.00000275,-0.00000554,-0.00000988,0.00000835,0.00
 000066,-0.00001172,0.00000052,0.00000383,0.00000241,0.00000022,-0.0072
 2875,-0.13014010,-0.20017048,-0.00223438,-0.01133911,-0.01286303,0.012
 90281,0.14114033,0.21828673,-0.00075656,0.00059936,-0.00019271,0.00004
 941,0.00001898,0.00005321,-0.00008451,-0.00027489,-0.00023930,0.000566
 81,-0.00283322,-0.00127492,0.00006194,0.00008779,0.00017755,-0.0001886
 2,0.00004273,0.00004995,-0.00293606,0.00145999,-0.00074430,-0.00005083
 ,-0.00006593,-0.00002318,0.00004911,0.00003343,0.00000638,0.00000983,-
 0.00002005,-0.00000673,0.00267709,0.02858771,-0.01153787,0.00036662,-0
 .00157406,0.00084201,-0.00005965,0.00000163,0.00000196,-0.00001179,-0.
 00002597,0.00001091,0.00000629,-0.00001685,0.00001396,0.00001268,-0.00
 002123,-0.00000049,-0.05052034,0.00370730,0.00055862,0.00199963,-0.024
 98897,0.00784401,-0.00038298,-0.00150410,0.00109831,0.04919195,0.00009
 279,-0.00016036,-0.00006871,-0.00001828,0.00000605,-0.00000733,0.00000
 016,0.00006321,0.00002740,-0.00012892,0.00024959,0.00010960,0.00005266
 ,-0.00003052,0.00000225,0.00009876,0.00000462,-0.00000995,0.00096274,-
 0.00049955,-0.00076983,0.00003723,0.00005958,0.00005220,-0.00002987,-0
 .00003753,0.00000245,0.00000481,0.00001023,0.00000172,-0.00019139,-0.0
 0150260,0.00198143,0.00069479,0.00037197,0.00015853,0.00002279,0.00000
 329,0.00000224,0.00000510,0.00000979,-0.00000485,-0.00000094,0.0000084
 8,-0.00000404,-0.00000669,0.00000594,-0.00000196,0.00199870,-0.2705478
 3,0.09234646,-0.00038102,-0.00159862,0.00005672,0.00000025,-0.02009541
 ,0.00790838,-0.00321365,0.29367964,-0.00050610,0.00047542,-0.00014628,
 0.00004086,0.00000074,0.00000002,0.00000098,-0.00018969,-0.00013320,-0
 .00037245,-0.00226796,-0.00082905,0.00021934,0.00001798,0.00014847,-0.
 00014418,-0.00000702,-0.00001678,-0.00306751,0.00186297,-0.00009003,0.
 00006146,-0.00007363,0.00003146,-0.00001637,-0.00002441,0.00000558,0.0
 0002796,-0.00000754,0.00002127,0.00013882,0.01693401,-0.01043033,-0.00
 013056,-0.00079434,0.00025944,-0.00003482,0.00001170,-0.00001619,0.000
 00832,-0.00001141,0.00000738,0.00000161,-0.00000815,0.00000719,-0.0000
 0178,-0.00001888,0.00001195,0.00159272,0.09330331,-0.08109075,-0.00189
 186,0.01714701,-0.00665834,0.00071091,-0.02456742,0.01067417,0.0033626
 4,-0.10178269,0.08824403\\-0.00000291,-0.00000237,0.00000641,0.0000014
 1,-0.00000009,-0.00000266,-0.00000416,0.00000240,-0.00000125,0.0000009
 4,0.00000154,-0.00001063,-0.00000029,0.00000066,0.00000187,-0.00000080
 ,0.00000087,0.00000187,0.00000193,0.00000512,0.00000290,0.00000170,0.0
 0000761,-0.00000317,-0.00000638,-0.00000962,-0.00000495,0.00000272,0.0
 0000399,0.00000329,0.00000261,0.00000017,0.00000866,0.00000398,0.00000
 019,-0.00000216,-0.00000204,0.00000258,-0.00000015,-0.00000200,0.00000
 004,0.00000085,-0.00000290,0.00000053,0.00000099,-0.00000102,-0.000000
 19,0.,0.00000151,-0.00002883,-0.00000113,0.00000131,0.00000344,-0.0000
 0133,0.00000289,0.00000462,0.00000220,0.00000150,0.00000733,-0.0000016
 1\\\@
 The archive entry for this job was punched.


 HONESTY IN A LAWYER IS LIKE A HEN'S HIND LEGS.
  -- MAGNUS OLESON, LAKE WOBEGON PATRIARCH, C.1875
 Job cpu time:       0 days  0 hours 15 minutes 37.5 seconds.
 Elapsed time:       0 days  0 hours  1 minutes 57.3 seconds.
 File lengths (MBytes):  RWF=    101 Int=      0 D2E=      0 Chk=      9 Scr=      1
 Normal termination of Gaussian 16 at Wed Sep 29 04:43:23 2021.
