 Entering Gaussian System, Link 0=/home/rong/g16/g16
 Input=/home/rong/g16/092821/benzNCHCH3benz.gjf
 Output=/home/rong/g16/092821/benzNCHCH3benz.log
 Initial command:
 /home/rong/g16/l1.exe "/tmp/Gau-143232.inp" -scrdir="/tmp/"
 Default is to use a total of   8 processors:
                                8 via shared-memory
                                1 via Linda
 Entering Link 1 = /home/rong/g16/l1.exe PID=    143234.
  
 Copyright (c) 1988-2019, Gaussian, Inc.  All Rights Reserved.
  
 This is part of the Gaussian(R) 16 program.  It is based on
 the Gaussian(R) 09 system (copyright 2009, Gaussian, Inc.),
 the Gaussian(R) 03 system (copyright 2003, Gaussian, Inc.),
 the Gaussian(R) 98 system (copyright 1998, Gaussian, Inc.),
 the Gaussian(R) 94 system (copyright 1995, Gaussian, Inc.),
 the Gaussian 92(TM) system (copyright 1992, Gaussian, Inc.),
 the Gaussian 90(TM) system (copyright 1990, Gaussian, Inc.),
 the Gaussian 88(TM) system (copyright 1988, Gaussian, Inc.),
 the Gaussian 86(TM) system (copyright 1986, Carnegie Mellon
 University), and the Gaussian 82(TM) system (copyright 1983,
 Carnegie Mellon University). Gaussian is a federally registered
 trademark of Gaussian, Inc.
  
 This software contains proprietary and confidential information,
 including trade secrets, belonging to Gaussian, Inc.
  
 This software is provided under written license and may be
 used, copied, transmitted, or stored only in accord with that
 written license.
  
 The following legend is applicable only to US Government
 contracts under FAR:
  
                    RESTRICTED RIGHTS LEGEND
  
 Use, reproduction and disclosure by the US Government is
 subject to restrictions as set forth in subparagraphs (a)
 and (c) of the Commercial Computer Software - Restricted
 Rights clause in FAR 52.227-19.
  
 Gaussian, Inc.
 340 Quinnipiac St., Bldg. 40, Wallingford CT 06492
  
  
 ---------------------------------------------------------------
 Warning -- This program may not be used in any manner that
 competes with the business of Gaussian, Inc. or will provide
 assistance to any competitor of Gaussian, Inc.  The licensee
 of this program is prohibited from giving any competitor of
 Gaussian, Inc. access to this program.  By using this program,
 the user acknowledges that Gaussian, Inc. is engaged in the
 business of creating and licensing software in the field of
 computational chemistry and represents and warrants to the
 licensee that it is not a competitor of Gaussian, Inc. and that
 it will not use this program in any manner prohibited above.
 ---------------------------------------------------------------
  

 Cite this work as:
 Gaussian 16, Revision C.01,
 M. J. Frisch, G. W. Trucks, H. B. Schlegel, G. E. Scuseria, 
 M. A. Robb, J. R. Cheeseman, G. Scalmani, V. Barone, 
 G. A. Petersson, H. Nakatsuji, X. Li, M. Caricato, A. V. Marenich, 
 J. Bloino, B. G. Janesko, R. Gomperts, B. Mennucci, H. P. Hratchian, 
 J. V. Ortiz, A. F. Izmaylov, J. L. Sonnenberg, D. Williams-Young, 
 F. Ding, F. Lipparini, F. Egidi, J. Goings, B. Peng, A. Petrone, 
 T. Henderson, D. Ranasinghe, V. G. Zakrzewski, J. Gao, N. Rega, 
 G. Zheng, W. Liang, M. Hada, M. Ehara, K. Toyota, R. Fukuda, 
 J. Hasegawa, M. Ishida, T. Nakajima, Y. Honda, O. Kitao, H. Nakai, 
 T. Vreven, K. Throssell, J. A. Montgomery, Jr., J. E. Peralta, 
 F. Ogliaro, M. J. Bearpark, J. J. Heyd, E. N. Brothers, K. N. Kudin, 
 V. N. Staroverov, T. A. Keith, R. Kobayashi, J. Normand, 
 K. Raghavachari, A. P. Rendell, J. C. Burant, S. S. Iyengar, 
 J. Tomasi, M. Cossi, J. M. Millam, M. Klene, C. Adamo, R. Cammi, 
 J. W. Ochterski, R. L. Martin, K. Morokuma, O. Farkas, 
 J. B. Foresman, and D. J. Fox, Gaussian, Inc., Wallingford CT, 2019.
 
 ******************************************
 Gaussian 16:  ES64L-G16RevC.01  3-Jul-2019
                29-Sep-2021 
 ******************************************
 %mem=15GB
 %chk=benzNCHCH3benz.chk
 %nprocshared=8
 Will use up to    8 processors via shared memory.
 -------------------------------------------------
 # opt freq b3lyp/6-31g scrf=(smd,solvent=toluene)
 -------------------------------------------------
 1/18=20,19=15,26=3,38=1/1,3;
 2/9=110,12=2,17=6,18=5,40=1/2;
 3/5=1,6=6,11=2,25=1,30=1,70=32201,71=1,72=13,74=-5/1,2,3;
 4//1;
 5/5=2,38=5,53=13/2;
 6/7=2,8=2,9=2,10=2,28=1/1;
 7//1,2,3,16;
 1/18=20,19=15,26=3/3(2);
 2/9=110/2;
 99//99;
 2/9=110/2;
 3/5=1,6=6,11=2,25=1,30=1,70=32205,71=1,72=13,74=-5/1,2,3;
 4/5=5,16=3,69=1/1;
 5/5=2,38=5,53=13/2;
 7//1,2,3,16;
 1/18=20,19=15,26=3/3(-5);
 2/9=110/2;
 6/7=2,8=2,9=2,10=2,19=2,28=1/1;
 99/9=1/99;
 -------------------
 Title Card Required
 -------------------
 Symbolic Z-matrix:
 Charge =  0 Multiplicity = 1
 C                    -3.83801   1.1767    0.03484 
 C                    -2.44285   1.1767    0.03484 
 C                    -1.74531   2.38445   0.03484 
 C                    -2.44296   3.59296   0.03364 
 C                    -3.83779   3.59288   0.03316 
 C                    -4.53539   2.38467   0.03416 
 H                    -4.38777   0.22438   0.03529 
 H                    -0.64563   2.38453   0.03547 
 H                    -1.89276   4.5451    0.03358 
 H                    -4.38791   4.54516   0.03221 
 H                    -5.63499   2.38486   0.03398 
 C                    -1.6733   -0.15724   0.03668 
 H                    -1.50992  -0.47336   1.04578 
 C                    -0.31709   0.03156  -0.66806 
 H                    -0.46525   0.54517  -1.59497 
 C                     0.61896   0.85829   0.233 
 C                     1.38907   1.88398  -0.31596 
 C                     0.6968    0.58178   1.59793 
 C                     2.23732   2.63249   0.49978 
 H                     1.32805   2.10122  -1.39221 
 C                     1.54452   1.33107   2.41423 
 H                     0.08977  -0.22647   2.0308 
 C                     2.31483   2.35622   1.86539 
 H                     2.84483   3.44055   0.06705 
 H                     1.60538   1.1131    3.49045 
 H                     2.98367   2.94657   2.50838 
 N                    -2.45773  -1.17646  -0.67518 
 N                     0.28751  -1.283    -0.92748 
 C                    -2.43949  -2.40532  -0.27148 
 H                    -2.54149  -3.20078  -0.97981 
 C                     1.46384  -1.36015  -1.46011 
 H                     1.63123  -0.99444  -2.45165 
 C                    -2.27149  -2.7273    1.22508 
 H                    -2.72623  -3.67173   1.43996 
 H                    -1.22984  -2.76995   1.46599 
 H                    -2.74168  -1.96394   1.80912 
 C                     2.6273   -1.98048  -0.66441 
 H                     2.95982  -2.87141  -1.15489 
 H                     3.435    -1.28081  -0.60967 
 H                     2.29547  -2.22021   0.32418 
 

 GradGradGradGradGradGradGradGradGradGradGradGradGradGradGradGradGradGrad
 Berny optimization.
 Initialization pass.
                           ----------------------------
                           !    Initial Parameters    !
                           ! (Angstroms and Degrees)  !
 --------------------------                            --------------------------
 ! Name  Definition              Value          Derivative Info.                !
 --------------------------------------------------------------------------------
 ! R1    R(1,2)                  1.3952         estimate D2E/DX2                !
 ! R2    R(1,6)                  1.3948         estimate D2E/DX2                !
 ! R3    R(1,7)                  1.0996         estimate D2E/DX2                !
 ! R4    R(2,3)                  1.3947         estimate D2E/DX2                !
 ! R5    R(2,12)                 1.54           estimate D2E/DX2                !
 ! R6    R(3,4)                  1.3954         estimate D2E/DX2                !
 ! R7    R(3,8)                  1.0997         estimate D2E/DX2                !
 ! R8    R(4,5)                  1.3948         estimate D2E/DX2                !
 ! R9    R(4,9)                  1.0997         estimate D2E/DX2                !
 ! R10   R(5,6)                  1.3951         estimate D2E/DX2                !
 ! R11   R(5,10)                 1.0998         estimate D2E/DX2                !
 ! R12   R(6,11)                 1.0996         estimate D2E/DX2                !
 ! R13   R(12,13)                1.07           estimate D2E/DX2                !
 ! R14   R(12,14)                1.54           estimate D2E/DX2                !
 ! R15   R(12,27)                1.47           estimate D2E/DX2                !
 ! R16   R(14,15)                1.07           estimate D2E/DX2                !
 ! R17   R(14,16)                1.54           estimate D2E/DX2                !
 ! R18   R(14,28)                1.47           estimate D2E/DX2                !
 ! R19   R(16,17)                1.3952         estimate D2E/DX2                !
 ! R20   R(16,18)                1.3948         estimate D2E/DX2                !
 ! R21   R(17,19)                1.3947         estimate D2E/DX2                !
 ! R22   R(17,20)                1.0997         estimate D2E/DX2                !
 ! R23   R(18,21)                1.3951         estimate D2E/DX2                !
 ! R24   R(18,22)                1.0996         estimate D2E/DX2                !
 ! R25   R(19,23)                1.3954         estimate D2E/DX2                !
 ! R26   R(19,24)                1.0997         estimate D2E/DX2                !
 ! R27   R(21,23)                1.3948         estimate D2E/DX2                !
 ! R28   R(21,25)                1.0998         estimate D2E/DX2                !
 ! R29   R(23,26)                1.0997         estimate D2E/DX2                !
 ! R30   R(27,29)                1.2936         estimate D2E/DX2                !
 ! R31   R(28,31)                1.2936         estimate D2E/DX2                !
 ! R32   R(29,30)                1.07           estimate D2E/DX2                !
 ! R33   R(29,33)                1.54           estimate D2E/DX2                !
 ! R34   R(31,32)                1.07           estimate D2E/DX2                !
 ! R35   R(31,37)                1.54           estimate D2E/DX2                !
 ! R36   R(33,34)                1.07           estimate D2E/DX2                !
 ! R37   R(33,35)                1.07           estimate D2E/DX2                !
 ! R38   R(33,36)                1.07           estimate D2E/DX2                !
 ! R39   R(37,38)                1.07           estimate D2E/DX2                !
 ! R40   R(37,39)                1.07           estimate D2E/DX2                !
 ! R41   R(37,40)                1.07           estimate D2E/DX2                !
 ! A1    A(2,1,6)              119.9985         estimate D2E/DX2                !
 ! A2    A(2,1,7)              119.9972         estimate D2E/DX2                !
 ! A3    A(6,1,7)              120.0043         estimate D2E/DX2                !
 ! A4    A(1,2,3)              120.0086         estimate D2E/DX2                !
 ! A5    A(1,2,12)             119.9808         estimate D2E/DX2                !
 ! A6    A(3,2,12)             120.0105         estimate D2E/DX2                !
 ! A7    A(2,3,4)              119.9942         estimate D2E/DX2                !
 ! A8    A(2,3,8)              120.0128         estimate D2E/DX2                !
 ! A9    A(4,3,8)              119.993          estimate D2E/DX2                !
 ! A10   A(3,4,5)              119.994          estimate D2E/DX2                !
 ! A11   A(3,4,9)              119.9811         estimate D2E/DX2                !
 ! A12   A(5,4,9)              120.0249         estimate D2E/DX2                !
 ! A13   A(4,5,6)              120.0047         estimate D2E/DX2                !
 ! A14   A(4,5,10)             120.0113         estimate D2E/DX2                !
 ! A15   A(6,5,10)             119.984          estimate D2E/DX2                !
 ! A16   A(1,6,5)              120.0            estimate D2E/DX2                !
 ! A17   A(1,6,11)             120.008          estimate D2E/DX2                !
 ! A18   A(5,6,11)             119.992          estimate D2E/DX2                !
 ! A19   A(2,12,13)            109.4712         estimate D2E/DX2                !
 ! A20   A(2,12,14)            109.4712         estimate D2E/DX2                !
 ! A21   A(2,12,27)            109.4712         estimate D2E/DX2                !
 ! A22   A(13,12,14)           109.4712         estimate D2E/DX2                !
 ! A23   A(13,12,27)           109.4713         estimate D2E/DX2                !
 ! A24   A(14,12,27)           109.4712         estimate D2E/DX2                !
 ! A25   A(12,14,15)           109.4712         estimate D2E/DX2                !
 ! A26   A(12,14,16)           109.4712         estimate D2E/DX2                !
 ! A27   A(12,14,28)           109.4712         estimate D2E/DX2                !
 ! A28   A(15,14,16)           109.4712         estimate D2E/DX2                !
 ! A29   A(15,14,28)           109.4712         estimate D2E/DX2                !
 ! A30   A(16,14,28)           109.4713         estimate D2E/DX2                !
 ! A31   A(14,16,17)           119.9972         estimate D2E/DX2                !
 ! A32   A(14,16,18)           120.0043         estimate D2E/DX2                !
 ! A33   A(17,16,18)           119.9985         estimate D2E/DX2                !
 ! A34   A(16,17,19)           120.0086         estimate D2E/DX2                !
 ! A35   A(16,17,20)           119.9808         estimate D2E/DX2                !
 ! A36   A(19,17,20)           120.0106         estimate D2E/DX2                !
 ! A37   A(16,18,21)           120.0            estimate D2E/DX2                !
 ! A38   A(16,18,22)           120.008          estimate D2E/DX2                !
 ! A39   A(21,18,22)           119.992          estimate D2E/DX2                !
 ! A40   A(17,19,23)           119.9942         estimate D2E/DX2                !
 ! A41   A(17,19,24)           120.0128         estimate D2E/DX2                !
 ! A42   A(23,19,24)           119.993          estimate D2E/DX2                !
 ! A43   A(18,21,23)           120.0047         estimate D2E/DX2                !
 ! A44   A(18,21,25)           119.984          estimate D2E/DX2                !
 ! A45   A(23,21,25)           120.0113         estimate D2E/DX2                !
 ! A46   A(19,23,21)           119.994          estimate D2E/DX2                !
 ! A47   A(19,23,26)           119.9811         estimate D2E/DX2                !
 ! A48   A(21,23,26)           120.0249         estimate D2E/DX2                !
 ! A49   A(12,27,29)           120.0            estimate D2E/DX2                !
 ! A50   A(14,28,31)           120.0            estimate D2E/DX2                !
 ! A51   A(27,29,30)           119.8865         estimate D2E/DX2                !
 ! A52   A(27,29,33)           120.2269         estimate D2E/DX2                !
 ! A53   A(30,29,33)           119.8865         estimate D2E/DX2                !
 ! A54   A(28,31,32)           120.2269         estimate D2E/DX2                !
 ! A55   A(28,31,37)           119.8865         estimate D2E/DX2                !
 ! A56   A(32,31,37)           119.8865         estimate D2E/DX2                !
 ! A57   A(29,33,34)           109.4712         estimate D2E/DX2                !
 ! A58   A(29,33,35)           109.4712         estimate D2E/DX2                !
 ! A59   A(29,33,36)           109.4712         estimate D2E/DX2                !
 ! A60   A(34,33,35)           109.4713         estimate D2E/DX2                !
 ! A61   A(34,33,36)           109.4712         estimate D2E/DX2                !
 ! A62   A(35,33,36)           109.4712         estimate D2E/DX2                !
 ! A63   A(31,37,38)           109.4712         estimate D2E/DX2                !
 ! A64   A(31,37,39)           109.4712         estimate D2E/DX2                !
 ! A65   A(31,37,40)           109.4712         estimate D2E/DX2                !
 ! A66   A(38,37,39)           109.4713         estimate D2E/DX2                !
 ! A67   A(38,37,40)           109.4712         estimate D2E/DX2                !
 ! A68   A(39,37,40)           109.4712         estimate D2E/DX2                !
 ! D1    D(6,1,2,3)              0.0323         estimate D2E/DX2                !
 ! D2    D(6,1,2,12)           179.9532         estimate D2E/DX2                !
 ! D3    D(7,1,2,3)           -179.9729         estimate D2E/DX2                !
 ! D4    D(7,1,2,12)            -0.052          estimate D2E/DX2                !
 ! D5    D(2,1,6,5)              0.0149         estimate D2E/DX2                !
 ! D6    D(2,1,6,11)           179.9892         estimate D2E/DX2                !
 ! D7    D(7,1,6,5)           -179.9798         estimate D2E/DX2                !
 ! D8    D(7,1,6,11)            -0.0056         estimate D2E/DX2                !
 ! D9    D(1,2,3,4)             -0.0568         estimate D2E/DX2                !
 ! D10   D(1,2,3,8)            179.9619         estimate D2E/DX2                !
 ! D11   D(12,2,3,4)          -179.9777         estimate D2E/DX2                !
 ! D12   D(12,2,3,8)             0.041          estimate D2E/DX2                !
 ! D13   D(1,2,12,13)          -89.0261         estimate D2E/DX2                !
 ! D14   D(1,2,12,14)          150.9739         estimate D2E/DX2                !
 ! D15   D(1,2,12,27)           30.9739         estimate D2E/DX2                !
 ! D16   D(3,2,12,13)           90.8948         estimate D2E/DX2                !
 ! D17   D(3,2,12,14)          -29.1052         estimate D2E/DX2                !
 ! D18   D(3,2,12,27)         -149.1052         estimate D2E/DX2                !
 ! D19   D(2,3,4,5)              0.0341         estimate D2E/DX2                !
 ! D20   D(2,3,4,9)           -179.9964         estimate D2E/DX2                !
 ! D21   D(8,3,4,5)           -179.9846         estimate D2E/DX2                !
 ! D22   D(8,3,4,9)             -0.0151         estimate D2E/DX2                !
 ! D23   D(3,4,5,6)              0.0131         estimate D2E/DX2                !
 ! D24   D(3,4,5,10)          -179.9995         estimate D2E/DX2                !
 ! D25   D(9,4,5,6)           -179.9563         estimate D2E/DX2                !
 ! D26   D(9,4,5,10)             0.0311         estimate D2E/DX2                !
 ! D27   D(4,5,6,1)             -0.0376         estimate D2E/DX2                !
 ! D28   D(4,5,6,11)           179.9881         estimate D2E/DX2                !
 ! D29   D(10,5,6,1)           179.975          estimate D2E/DX2                !
 ! D30   D(10,5,6,11)            0.0007         estimate D2E/DX2                !
 ! D31   D(2,12,14,15)         -47.7967         estimate D2E/DX2                !
 ! D32   D(2,12,14,16)          72.2032         estimate D2E/DX2                !
 ! D33   D(2,12,14,28)        -167.7967         estimate D2E/DX2                !
 ! D34   D(13,12,14,15)       -167.7967         estimate D2E/DX2                !
 ! D35   D(13,12,14,16)        -47.7967         estimate D2E/DX2                !
 ! D36   D(13,12,14,28)         72.2033         estimate D2E/DX2                !
 ! D37   D(27,12,14,15)         72.2032         estimate D2E/DX2                !
 ! D38   D(27,12,14,16)       -167.7968         estimate D2E/DX2                !
 ! D39   D(27,12,14,28)        -47.7968         estimate D2E/DX2                !
 ! D40   D(2,12,27,29)        -144.3639         estimate D2E/DX2                !
 ! D41   D(13,12,27,29)        -24.3639         estimate D2E/DX2                !
 ! D42   D(14,12,27,29)         95.6361         estimate D2E/DX2                !
 ! D43   D(12,14,16,17)       -136.2324         estimate D2E/DX2                !
 ! D44   D(12,14,16,18)         43.7623         estimate D2E/DX2                !
 ! D45   D(15,14,16,17)        -16.2324         estimate D2E/DX2                !
 ! D46   D(15,14,16,18)        163.7623         estimate D2E/DX2                !
 ! D47   D(28,14,16,17)        103.7676         estimate D2E/DX2                !
 ! D48   D(28,14,16,18)        -76.2377         estimate D2E/DX2                !
 ! D49   D(12,14,28,31)       -176.8527         estimate D2E/DX2                !
 ! D50   D(15,14,28,31)         63.1473         estimate D2E/DX2                !
 ! D51   D(16,14,28,31)        -56.8527         estimate D2E/DX2                !
 ! D52   D(14,16,17,19)       -179.9729         estimate D2E/DX2                !
 ! D53   D(14,16,17,20)         -0.052          estimate D2E/DX2                !
 ! D54   D(18,16,17,19)          0.0323         estimate D2E/DX2                !
 ! D55   D(18,16,17,20)        179.9532         estimate D2E/DX2                !
 ! D56   D(14,16,18,21)       -179.9798         estimate D2E/DX2                !
 ! D57   D(14,16,18,22)         -0.0056         estimate D2E/DX2                !
 ! D58   D(17,16,18,21)          0.0149         estimate D2E/DX2                !
 ! D59   D(17,16,18,22)        179.9892         estimate D2E/DX2                !
 ! D60   D(16,17,19,23)         -0.0568         estimate D2E/DX2                !
 ! D61   D(16,17,19,24)        179.9619         estimate D2E/DX2                !
 ! D62   D(20,17,19,23)       -179.9777         estimate D2E/DX2                !
 ! D63   D(20,17,19,24)          0.041          estimate D2E/DX2                !
 ! D64   D(16,18,21,23)         -0.0376         estimate D2E/DX2                !
 ! D65   D(16,18,21,25)        179.975          estimate D2E/DX2                !
 ! D66   D(22,18,21,23)        179.9881         estimate D2E/DX2                !
 ! D67   D(22,18,21,25)          0.0007         estimate D2E/DX2                !
 ! D68   D(17,19,23,21)          0.0341         estimate D2E/DX2                !
 ! D69   D(17,19,23,26)       -179.9964         estimate D2E/DX2                !
 ! D70   D(24,19,23,21)       -179.9846         estimate D2E/DX2                !
 ! D71   D(24,19,23,26)         -0.0151         estimate D2E/DX2                !
 ! D72   D(18,21,23,19)          0.0131         estimate D2E/DX2                !
 ! D73   D(18,21,23,26)       -179.9563         estimate D2E/DX2                !
 ! D74   D(25,21,23,19)       -179.9995         estimate D2E/DX2                !
 ! D75   D(25,21,23,26)          0.0311         estimate D2E/DX2                !
 ! D76   D(12,27,29,30)       -148.1427         estimate D2E/DX2                !
 ! D77   D(12,27,29,33)         31.8573         estimate D2E/DX2                !
 ! D78   D(14,28,31,32)        -63.8754         estimate D2E/DX2                !
 ! D79   D(14,28,31,37)        116.1246         estimate D2E/DX2                !
 ! D80   D(27,29,33,34)        153.2339         estimate D2E/DX2                !
 ! D81   D(27,29,33,35)        -86.7661         estimate D2E/DX2                !
 ! D82   D(27,29,33,36)         33.2339         estimate D2E/DX2                !
 ! D83   D(30,29,33,34)        -26.7661         estimate D2E/DX2                !
 ! D84   D(30,29,33,35)         93.2339         estimate D2E/DX2                !
 ! D85   D(30,29,33,36)       -146.7661         estimate D2E/DX2                !
 ! D86   D(28,31,37,38)        115.7319         estimate D2E/DX2                !
 ! D87   D(28,31,37,39)       -124.2681         estimate D2E/DX2                !
 ! D88   D(28,31,37,40)         -4.2681         estimate D2E/DX2                !
 ! D89   D(32,31,37,38)        -64.2681         estimate D2E/DX2                !
 ! D90   D(32,31,37,39)         55.7319         estimate D2E/DX2                !
 ! D91   D(32,31,37,40)        175.7319         estimate D2E/DX2                !
 --------------------------------------------------------------------------------
 Trust Radius=3.00D-01 FncErr=1.00D-07 GrdErr=1.00D-06 EigMax=2.50D+02 EigMin=1.00D-04
 Number of steps in this run=    210 maximum allowed number of steps=    240.
 GradGradGradGradGradGradGradGradGradGradGradGradGradGradGradGradGradGrad

                          Input orientation:                          
 ---------------------------------------------------------------------
 Center     Atomic      Atomic             Coordinates (Angstroms)
 Number     Number       Type             X           Y           Z
 ---------------------------------------------------------------------
      1          6           0       -3.838007    1.176699    0.034840
      2          6           0       -2.442847    1.176699    0.034840
      3          6           0       -1.745309    2.384450    0.034840
      4          6           0       -2.442963    3.592959    0.033641
      5          6           0       -3.837788    3.592881    0.033162
      6          6           0       -4.535389    2.384675    0.034158
      7          1           0       -4.387766    0.224382    0.035290
      8          1           0       -0.645629    2.384530    0.035474
      9          1           0       -1.892763    4.545102    0.033582
     10          1           0       -4.387910    4.545162    0.032209
     11          1           0       -5.634993    2.384858    0.033978
     12          6           0       -1.673295   -0.157238    0.036682
     13          1           0       -1.509918   -0.473355    1.045779
     14          6           0       -0.317091    0.031556   -0.668064
     15          1           0       -0.465249    0.545169   -1.594968
     16          6           0        0.618960    0.858288    0.233004
     17          6           0        1.389073    1.883977   -0.315958
     18          6           0        0.696803    0.581776    1.597932
     19          6           0        2.237316    2.632492    0.499782
     20          1           0        1.328051    2.101219   -1.392213
     21          6           0        1.544518    1.331073    2.414231
     22          1           0        0.089771   -0.226474    2.030796
     23          6           0        2.314831    2.356220    1.865388
     24          1           0        2.844827    3.440555    0.067046
     25          1           0        1.605381    1.113099    3.490455
     26          1           0        2.983668    2.946570    2.508382
     27          7           0       -2.457733   -1.176459   -0.675178
     28          7           0        0.287508   -1.283003   -0.927477
     29          6           0       -2.439495   -2.405319   -0.271479
     30          1           0       -2.541487   -3.200783   -0.979811
     31          6           0        1.463835   -1.360152   -1.460114
     32          1           0        1.631226   -0.994441   -2.451646
     33          6           0       -2.271494   -2.727302    1.225085
     34          1           0       -2.726231   -3.671730    1.439959
     35          1           0       -1.229839   -2.769953    1.465993
     36          1           0       -2.741683   -1.963940    1.809122
     37          6           0        2.627302   -1.980476   -0.664410
     38          1           0        2.959818   -2.871411   -1.154886
     39          1           0        3.434997   -1.280810   -0.609668
     40          1           0        2.295472   -2.220209    0.324183
 ---------------------------------------------------------------------
                    Distance matrix (angstroms):
                    1          2          3          4          5
     1  C    0.000000
     2  C    1.395160   0.000000
     3  C    2.416205   1.394712   0.000000
     4  C    2.790065   2.416260   1.395427   0.000000
     5  C    2.416183   2.789946   2.416356   1.394825   0.000000
     6  C    1.394829   2.416183   2.790080   2.416236   1.395138
     7  H    1.099610   2.165553   3.412986   3.889675   3.413102
     8  H    3.413229   2.165375   1.099680   2.165806   3.413209
     9  H    3.889745   3.413024   2.165678   1.099680   2.165606
    10  H    3.413055   3.889707   3.413506   2.165528   1.099761
    11  H    2.165365   3.413128   3.889684   3.412999   2.165471
    12  C    2.542709   1.540000   2.542708   3.828364   4.329946
    13  H    3.027321   2.148263   3.040470   4.293007   4.793605
    14  C    3.768591   2.514810   2.840773   4.206580   5.056685
    15  H    3.798764   2.639319   2.770882   3.981551   4.828393
    16  C    4.472718   3.084691   2.821029   4.110176   5.232642
    17  C    5.286366   3.912405   3.193413   4.210385   5.510201
    18  C    4.833394   3.557330   3.414206   4.623025   5.663725
    19  C    6.264587   4.923356   4.017337   4.800500   6.168223
    20  H    5.438692   4.136531   3.400330   4.298708   5.562611
    21  C    5.887012   4.645903   4.194528   5.165592   6.305116
    22  H    4.623870   3.516659   3.764078   4.999144   5.831272
    23  C    6.526837   5.232369   4.453812   5.246087   6.537668
    24  H    7.055945   5.752007   4.710175   5.290092   6.684437
    25  H    6.447929   5.322919   4.978426   5.872678   6.908710
    26  H    7.469010   6.220765   5.366341   5.999207   7.285375
    27  N    2.818977   2.457987   3.700236   4.821824   5.015267
    28  N    4.898578   3.798819   4.302163   5.670470   6.458726
    29  C    3.857527   3.595092   4.849495   6.006034   6.166557
    30  H    4.676839   4.494618   5.732210   6.869623   6.990020
    31  C    6.064655   4.892103   5.153207   6.482877   7.407403
    32  H    6.388190   5.243523   5.385212   6.619661   7.558301
    33  C    4.371712   4.085005   5.274804   6.433866   6.619567
    34  H    5.168913   5.055880   6.293955   7.404976   7.482593
    35  H    4.942347   4.369856   5.374176   6.633999   7.024247
    36  H    3.770095   3.619529   4.800972   5.841292   5.935801
    37  C    7.228895   6.013577   6.217817   7.566904   8.564245
    38  H    8.000817   6.855030   7.153862   8.508274   9.455474
    39  H    7.703982   6.403421   6.378487   7.662760   8.778354
    40  H    7.017283   5.837325   6.133067   7.505338   8.455388
                    6          7          8          9         10
     6  C    0.000000
     7  H    2.165331   0.000000
     8  H    3.889760   4.320860   0.000000
     9  H    3.413344   4.989355   2.494678   0.000000
    10  H    2.165516   4.320781   4.321228   2.495147   0.000000
    11  H    1.099604   2.494641   4.989364   4.320988   2.494420
    12  C    3.827912   2.741166   2.741656   4.707459   5.429707
    13  H    4.283128   3.128887   3.152018   5.133812   5.873302
    14  C    4.881017   4.135491   2.477779   4.831889   6.118381
    15  H    4.754354   4.259905   2.464575   4.548564   5.833946
    16  C    5.379285   5.050568   1.991888   4.465548   6.221102
    17  C    5.955882   6.020756   2.124634   4.239600   6.369981
    18  C    5.750798   5.331269   2.737393   4.986080   6.634322
    19  C    6.793214   7.064451   2.930604   4.575257   6.911624
    20  H    6.041094   6.183110   2.452339   4.287085   6.377621
    21  C    6.613630   6.486611   3.400735   5.273744   7.155285
    22  H    5.674220   4.922769   3.367412   5.539607   6.841965
    23  C    7.090820   7.267655   3.480476   5.084345   7.285517
    24  H    7.455439   7.915503   3.646844   4.864762   7.316684
    25  H    7.160443   6.974653   4.315144   5.997134   7.723862
    26  H    7.935599   8.237993   4.427523   5.697325   7.938960
    27  N    4.183478   2.488403   4.058249   5.792909   6.079714
    28  N    6.134895   5.005729   3.904973   6.296350   7.533129
    29  C    5.237387   3.287125   5.123946   6.978561   7.224799
    30  H    6.016736   4.021309   5.985048   7.838784   8.027024
    31  C    7.228228   6.244055   4.550744   6.954848   8.446460
    32  H    7.458203   6.625606   4.773603   7.020071   8.549078
    33  C    5.716278   3.821866   5.494491   7.379090   7.667522
    34  H    6.475288   4.462452   6.555895   8.377880   8.500602
    35  H    6.288640   4.580988   5.381113   7.483401   8.095681
    36  H    5.027756   3.262640   5.142806   6.800061   6.945206
    37  C    8.417047   7.386620   5.500472   7.968773   9.606374
    38  H    9.231381   8.061480   6.483913   8.942296  10.507324
    39  H    8.796440   7.992321   5.522901   7.920862   9.775062
    40  H    8.243163   7.122159   5.471476   7.962110   9.514362
                   11         12         13         14         15
    11  H    0.000000
    12  C    4.707155   0.000000
    13  H    5.119508   1.070000   0.000000
    14  C    5.857557   1.540000   2.148263   0.000000
    15  H    5.724001   2.148263   3.016998   1.070000   0.000000
    16  C    6.440649   2.514809   2.639318   1.540000   2.148263
    17  C    7.050592   3.697162   3.976870   2.542919   2.620455
    18  C    6.766735   2.932748   2.507548   2.542728   3.397988
    19  C    7.889965   4.825964   4.897567   3.828019   4.006089
    20  H    7.113259   4.018761   4.541619   2.741238   2.382924
    21  C    7.636848   4.268739   3.802395   3.828169   4.553075
    22  H    6.601459   2.662647   1.894786   2.741526   3.748286
    23  C    8.158100   5.056361   4.827729   4.330065   4.794040
    24  H    8.545347   5.775679   5.936364   4.707376   4.701293
    25  H    8.123276   4.928693   4.265954   4.707326   5.520107
    26  H    8.984404   6.118025   5.833302   5.429745   5.873605
    27  N    4.825025   1.470000   2.086720   2.457987   2.789267
    28  N    7.032327   2.457987   2.789267   1.470000   2.086720
    29  C    5.766308   2.394972   2.516300   3.255800   3.788753
    30  H    6.465055   3.324181   3.550494   3.936132   4.326816
    31  C    8.163993   3.678178   3.988624   2.394972   2.714737
    32  H    8.390228   4.220491   4.729726   2.833685   2.738522
    33  C    6.234264   2.894024   2.385880   3.874920   4.682338
    34  H    6.864396   3.928042   3.444473   4.895104   5.666132
    35  H    6.930232   3.010957   2.351464   3.638098   4.576474
    36  H    5.516740   2.747211   2.078889   3.999638   4.802667
    37  C    9.370667   4.723437   4.723637   3.566193   4.099840
    38  H   10.144582   5.500210   5.529208   4.404810   4.857754
    39  H    9.803883   5.270183   5.276806   3.975409   4.417798
    40  H    9.175137   4.482144   4.248905   3.588939   4.353394
                   16         17         18         19         20
    16  C    0.000000
    17  C    1.395160   0.000000
    18  C    1.394829   2.416183   0.000000
    19  C    2.416205   1.394712   2.790080   0.000000
    20  H    2.165414   1.099655   3.412938   2.165330   0.000000
    21  C    2.416183   2.789946   1.395138   2.416356   3.889601
    22  H    2.165365   3.413128   1.099604   3.889684   4.320704
    23  C    2.790065   2.416260   2.416236   1.395427   3.413316
    24  H    3.413229   2.165375   3.889760   1.099680   2.494768
    25  H    3.413055   3.889707   2.165516   3.413506   4.989362
    26  H    3.889745   3.413024   3.413344   2.165678   4.320917
    27  N    3.798819   4.928816   4.267262   6.158906   5.058604
    28  N    2.457987   3.408396   3.165852   4.601078   3.570948
    29  C    4.501086   5.749605   4.717393   6.917148   5.979910
    30  H    5.285394   6.461020   5.607052   7.684611   6.576824
    31  C    2.915808   3.440793   3.702847   4.514495   3.464699
    32  H    3.415353   3.592366   4.444850   4.715179   3.285944
    33  C    4.711199   6.085923   4.460920   7.041507   6.566703
    34  H    5.759175   7.133361   5.462091   8.078610   7.601666
    35  H    4.254697   5.629663   3.868262   6.491620   6.200037
    36  H    4.662943   6.032046   4.283511   6.901593   6.583069
    37  C    3.591290   4.072913   3.925577   4.773563   4.344880
    38  H    4.616981   5.077869   4.962232   5.792485   5.238897
    39  H    3.635368   3.779941   3.980004   4.240195   4.060754
    40  H    3.506587   4.251551   3.468328   4.856225   4.749385
                   21         22         23         24         25
    21  C    0.000000
    22  H    2.165471   0.000000
    23  C    1.394825   3.412999   0.000000
    24  H    3.413209   4.989364   2.165806   0.000000
    25  H    1.099761   2.494420   2.165528   4.321228   0.000000
    26  H    2.165606   4.320988   1.099680   2.494678   2.495147
    27  N    5.643597   3.835954   6.458457   7.069997   6.253276
    28  N    4.424984   3.147496   5.015385   5.462688   5.195788
    29  C    6.086544   4.055246   7.059891   7.887515   6.549231
    30  H    6.982312   4.983351   7.909441   8.614851   7.469228
    31  C    4.718024   3.919150   5.059109   5.223614   5.535805
    32  H    5.393728   4.801890   5.507362   5.242693   6.304836
    33  C    5.696176   3.532546   6.876523   8.096929   5.908531
    34  H    6.649552   4.488735   7.869528   9.138171   6.772147
    35  H    5.041292   2.920558   6.245146   7.558463   5.216801
    36  H    5.440109   3.329423   6.650961   7.965707   5.584981
    37  C    4.649388   4.096306   5.030353   5.474479   5.279908
    38  H    5.692323   5.037999   6.071754   6.430183   6.268175
    39  H    4.420386   4.390241   4.539677   4.805989   5.088153
    40  H    4.188536   3.428210   4.829016   5.693168   4.648919
                   26         27         28         29         30
    26  H    0.000000
    27  N    7.532813   0.000000
    28  N    6.079778   2.758868   0.000000
    29  C    8.110551   1.293600   3.021005   0.000000
    30  H    8.971330   2.048829   3.418162   1.070000   0.000000
    31  C    6.050348   4.003570   1.293600   4.212032   4.434097
    32  H    6.477851   4.461901   2.052301   4.828506   4.944267
    33  C    7.839413   2.459837   3.642528   1.540000   2.271265
    34  H    8.806042   3.282113   4.515904   2.148263   2.472085
    35  H    7.177663   2.937951   3.200322   2.148263   2.808557
    36  H    7.575072   2.621545   4.138677   2.148263   3.057451
    37  C    5.871063   5.148217   2.455668   5.099737   5.320245
    38  H    6.875246   5.696740   3.117050   5.490923   5.513937
    39  H    5.272255   5.894018   3.163494   5.990705   6.288216
    40  H    5.651544   4.968007   2.544981   4.775875   5.104713
                   31         32         33         34         35
    31  C    0.000000
    32  H    1.070000   0.000000
    33  C    4.799175   5.634925   0.000000
    34  H    5.595576   6.426499   1.070000   0.000000
    35  H    4.219659   5.165852   1.070000   1.747303   0.000000
    36  H    5.360863   6.181942   1.070000   1.747303   1.747303
    37  C    1.540000   2.271265   5.303408   5.995750   4.476542
    38  H    2.148263   2.640030   5.749057   6.301181   4.942928
    39  H    2.148263   2.593932   6.166254   6.919407   5.318516
    40  H    2.148263   3.106277   4.682514   5.345032   3.746166
                   36         37         38         39         40
    36  H    0.000000
    37  C    5.911399   0.000000
    38  H    6.489682   1.070000   0.000000
    39  H    6.668477   1.070000   1.747303   0.000000
    40  H    5.257722   1.070000   1.747303   1.747303   0.000000
 Stoichiometry    C18H20N2
 Framework group  C1[X(C18H20N2)]
 Deg. of freedom   114
 Full point group                 C1      NOp   1
 Largest Abelian subgroup         C1      NOp   1
 Largest concise Abelian subgroup C1      NOp   1
                         Standard orientation:                         
 ---------------------------------------------------------------------
 Center     Atomic      Atomic             Coordinates (Angstroms)
 Number     Number       Type             X           Y           Z
 ---------------------------------------------------------------------
      1          6           0        3.150592    0.534782    0.041469
      2          6           0        1.846276    0.054377   -0.078709
      3          6           0        1.622021   -1.297242   -0.339587
      4          6           0        2.702405   -2.168919   -0.481588
      5          6           0        4.006391   -1.688469   -0.361896
      6          6           0        4.230522   -0.336594   -0.099959
      7          1           0        3.327172    1.600369    0.247593
      8          1           0        0.593959   -1.676095   -0.433704
      9          1           0        2.525342   -3.234571   -0.687337
     10          1           0        4.858072   -2.375199   -0.473765
     11          1           0        5.258595    0.041905   -0.005447
     12          6           0        0.654226    1.016601    0.078582
     13          1           0        0.367275    1.063616    1.108314
     14          6           0       -0.531267    0.506916   -0.761910
     15          1           0       -0.190389    0.257633   -1.745048
     16          6           0       -1.133330   -0.743748   -0.094857
     17          6           0       -1.477844   -1.850739   -0.870970
     18          6           0       -1.334122   -0.769893    1.285197
     19          6           0       -2.023647   -2.983322   -0.267169
     20          1           0       -1.320132   -1.829520   -1.959051
     21          6           0       -1.879167   -1.903118    1.889463
     22          1           0       -1.062483    0.102434    1.897069
     23          6           0       -2.224062   -3.009701    1.113539
     24          1           0       -2.295803   -3.855665   -0.878924
     25          1           0       -2.036988   -1.923602    2.977649
     26          1           0       -2.654369   -3.902835    1.589400
     27          7           0        1.042190    2.357015   -0.383668
     28          7           0       -1.556486    1.556687   -0.850265
     29          6           0        0.580907    3.406525    0.215622
     30          1           0        0.410053    4.305379   -0.339148
     31          6           0       -2.671820    1.321671   -1.461984
     32          1           0       -2.676916    1.111856   -2.511199
     33          6           0        0.276820    3.366704    1.724776
     34          1           0        0.362639    4.352440    2.132034
     35          1           0       -0.717423    3.002478    1.878786
     36          1           0        0.973964    2.717527    2.212074
     37          6           0       -3.996810    1.343941   -0.677442
     38          1           0       -4.612500    2.140526   -1.039766
     39          1           0       -4.505252    0.411777   -0.809564
     40          1           0       -3.793287    1.494994    0.362106
 ---------------------------------------------------------------------
 Rotational constants (GHZ):           0.4129135           0.3117123           0.2112197
 Standard basis: 6-31G (6D, 7F)
 There are   220 symmetry adapted cartesian basis functions of A   symmetry.
 There are   220 symmetry adapted basis functions of A   symmetry.
   220 basis functions,   520 primitive gaussians,   220 cartesian basis functions
    71 alpha electrons       71 beta electrons
       nuclear repulsion energy      1501.4916653885 Hartrees.
 NAtoms=   40 NActive=   40 NUniq=   40 SFac= 1.00D+00 NAtFMM=   60 NAOKFM=F Big=F
 Integral buffers will be    131072 words long.
 Raffenetti 2 integral format.
 Two-electron integral symmetry is turned on.
 ------------------------------------------------------------------------------
 Polarizable Continuum Model (PCM)
 =================================
 Model                : PCM.
 Atomic radii         : SMD-Coulomb.
 Polarization charges : Total charges.
 Charge compensation  : None.
 Solution method      : On-the-fly selection.
 Cavity type          : VdW (van der Waals Surface) (Alpha=1.000).
 Cavity algorithm     : GePol (No added spheres)
                        Default sphere list used, NSphG=   40.
                        Lebedev-Laikov grids with approx.  5.0 points / Ang**2.
                        Smoothing algorithm: York/Karplus (Gamma=1.0000).
                        Polarization charges: spherical gaussians, with
                                              point-specific exponents (IZeta= 3).
                        Self-potential: point-specific (ISelfS= 7).
                        Self-field    : sphere-specific E.n sum rule (ISelfD= 2).
 1st derivatives      : Analytical E(r).r(x)/FMM algorithm (CHGder, D1EAlg=3).
                        Cavity 1st derivative terms included.
 Solvent              : Toluene, Eps=   2.374100 Eps(inf)=   2.238315
 ------------------------------------------------------------------------------
 ------------------------------------------------------------------------------
 Atomic radii for non-electrostatic terms: SMD-CDS.
 ------------------------------------------------------------------------------
 Nuclear repulsion after PCM non-electrostatic terms =     1501.4809326105 Hartrees.
 One-electron integrals computed using PRISM.
 NBasis=   220 RedAO= T EigKep=  5.55D-04  NBF=   220
 NBsUse=   220 1.00D-06 EigRej= -1.00D+00 NBFU=   220
 ExpMin= 1.61D-01 ExpMax= 4.17D+03 ExpMxC= 6.27D+02 IAcc=3 IRadAn=         5 AccDes= 0.00D+00
 Harris functional with IExCor=  402 and IRadAn=       5 diagonalized for initial guess.
 HarFok:  IExCor=  402 AccDes= 0.00D+00 IRadAn=         5 IDoV= 1 UseB2=F ITyADJ=14
 ICtDFT=  3500011 ScaDFX=  1.000000  1.000000  1.000000  1.000000
 FoFCou: FMM=F IPFlag=           0 FMFlag=      100000 FMFlg1=           0
         NFxFlg=           0 DoJE=T BraDBF=F KetDBF=T FulRan=T
         wScrn=  0.000000 ICntrl=       500 IOpCl=  0 I1Cent=   200000004 NGrid=           0
         NMat0=    1 NMatS0=      1 NMatT0=    0 NMatD0=    1 NMtDS0=    0 NMtDT0=    0
 Petite list used in FoFCou.
 Requested convergence on RMS density matrix=1.00D-08 within 128 cycles.
 Requested convergence on MAX density matrix=1.00D-06.
 Requested convergence on             energy=1.00D-06.
 No special actions if energy rises.
 Inv3:  Mode=1 IEnd=    25334508.
 Iteration    1 A*A^-1 deviation from unit magnitude is 5.11D-15 for   2902.
 Iteration    1 A*A^-1 deviation from orthogonality  is 1.91D-15 for   2902   2871.
 Iteration    1 A^-1*A deviation from unit magnitude is 5.55D-15 for   2902.
 Iteration    1 A^-1*A deviation from orthogonality  is 1.64D-15 for   1597    105.
 Error on total polarization charges =  0.03313
 SCF Done:  E(RB3LYP) =  -807.143267972     A.U. after   15 cycles
            NFock= 15  Conv=0.36D-08     -V/T= 2.0051
 SMD-CDS (non-electrostatic) energy       (kcal/mol) =      -6.73
 (included in total energy above)

 **********************************************************************

            Population analysis using the SCF Density.

 **********************************************************************

 Orbital symmetries:
       Occupied  (A) (A) (A) (A) (A) (A) (A) (A) (A) (A) (A) (A)
                 (A) (A) (A) (A) (A) (A) (A) (A) (A) (A) (A) (A)
                 (A) (A) (A) (A) (A) (A) (A) (A) (A) (A) (A) (A)
                 (A) (A) (A) (A) (A) (A) (A) (A) (A) (A) (A) (A)
                 (A) (A) (A) (A) (A) (A) (A) (A) (A) (A) (A) (A)
                 (A) (A) (A) (A) (A) (A) (A) (A) (A) (A) (A)
       Virtual   (A) (A) (A) (A) (A) (A) (A) (A) (A) (A) (A) (A)
                 (A) (A) (A) (A) (A) (A) (A) (A) (A) (A) (A) (A)
                 (A) (A) (A) (A) (A) (A) (A) (A) (A) (A) (A) (A)
                 (A) (A) (A) (A) (A) (A) (A) (A) (A) (A) (A) (A)
                 (A) (A) (A) (A) (A) (A) (A) (A) (A) (A) (A) (A)
                 (A) (A) (A) (A) (A) (A) (A) (A) (A) (A) (A) (A)
                 (A) (A) (A) (A) (A) (A) (A) (A) (A) (A) (A) (A)
                 (A) (A) (A) (A) (A) (A) (A) (A) (A) (A) (A) (A)
                 (A) (A) (A) (A) (A) (A) (A) (A) (A) (A) (A) (A)
                 (A) (A) (A) (A) (A) (A) (A) (A) (A) (A) (A) (A)
                 (A) (A) (A) (A) (A) (A) (A) (A) (A) (A) (A) (A)
                 (A) (A) (A) (A) (A) (A) (A) (A) (A) (A) (A) (A)
                 (A) (A) (A) (A) (A)
 The electronic state is 1-A.
 Alpha  occ. eigenvalues --  -14.30772 -14.30295 -10.23964 -10.22420 -10.22319
 Alpha  occ. eigenvalues --  -10.20724 -10.19820 -10.19115 -10.19025 -10.18915
 Alpha  occ. eigenvalues --  -10.18876 -10.18697 -10.18204 -10.17608 -10.17529
 Alpha  occ. eigenvalues --  -10.17474 -10.17273 -10.16857 -10.16566 -10.16377
 Alpha  occ. eigenvalues --   -0.93105  -0.90528  -0.86464  -0.84787  -0.79401
 Alpha  occ. eigenvalues --   -0.75509  -0.75063  -0.73627  -0.73346  -0.71991
 Alpha  occ. eigenvalues --   -0.69613  -0.64820  -0.61193  -0.59904  -0.59282
 Alpha  occ. eigenvalues --   -0.58006  -0.55760  -0.53773  -0.52203  -0.50955
 Alpha  occ. eigenvalues --   -0.48003  -0.47380  -0.46115  -0.45568  -0.44552
 Alpha  occ. eigenvalues --   -0.43762  -0.43217  -0.42638  -0.42504  -0.41935
 Alpha  occ. eigenvalues --   -0.41725  -0.41256  -0.40666  -0.39243  -0.38584
 Alpha  occ. eigenvalues --   -0.38009  -0.37869  -0.36850  -0.35153  -0.35092
 Alpha  occ. eigenvalues --   -0.34163  -0.32946  -0.32663  -0.29109  -0.28213
 Alpha  occ. eigenvalues --   -0.25786  -0.24479  -0.23995  -0.23484  -0.20938
 Alpha  occ. eigenvalues --   -0.19025
 Alpha virt. eigenvalues --   -0.04719  -0.01080  -0.00614   0.00345   0.01415
 Alpha virt. eigenvalues --    0.01493   0.09085   0.10412   0.11203   0.12864
 Alpha virt. eigenvalues --    0.13394   0.14504   0.14644   0.15251   0.15440
 Alpha virt. eigenvalues --    0.15795   0.16854   0.17072   0.17532   0.17769
 Alpha virt. eigenvalues --    0.18085   0.18724   0.18894   0.19481   0.19893
 Alpha virt. eigenvalues --    0.20151   0.20975   0.23620   0.23806   0.24747
 Alpha virt. eigenvalues --    0.26260   0.26894   0.27954   0.28453   0.29901
 Alpha virt. eigenvalues --    0.31245   0.32268   0.32871   0.34428   0.34951
 Alpha virt. eigenvalues --    0.35579   0.36134   0.37568   0.38499   0.40240
 Alpha virt. eigenvalues --    0.48260   0.49445   0.51182   0.52330   0.54123
 Alpha virt. eigenvalues --    0.54751   0.55220   0.55561   0.56638   0.57403
 Alpha virt. eigenvalues --    0.57672   0.58077   0.58300   0.58520   0.60134
 Alpha virt. eigenvalues --    0.60496   0.60576   0.61013   0.61704   0.62110
 Alpha virt. eigenvalues --    0.62336   0.62807   0.63581   0.64436   0.64655
 Alpha virt. eigenvalues --    0.64926   0.65501   0.65980   0.66380   0.66860
 Alpha virt. eigenvalues --    0.67111   0.68301   0.68689   0.69733   0.70557
 Alpha virt. eigenvalues --    0.71374   0.73434   0.75186   0.76484   0.77984
 Alpha virt. eigenvalues --    0.78472   0.79306   0.80540   0.83630   0.83885
 Alpha virt. eigenvalues --    0.84995   0.85833   0.86328   0.86568   0.87042
 Alpha virt. eigenvalues --    0.88077   0.88656   0.89070   0.90358   0.91723
 Alpha virt. eigenvalues --    0.92359   0.92736   0.94202   0.94635   0.96885
 Alpha virt. eigenvalues --    0.97333   0.97696   0.98298   0.98353   0.98985
 Alpha virt. eigenvalues --    0.99846   1.00600   1.01006   1.01250   1.02307
 Alpha virt. eigenvalues --    1.05267   1.06164   1.07042   1.08556   1.11317
 Alpha virt. eigenvalues --    1.12813   1.13437   1.15088   1.17564   1.18265
 Alpha virt. eigenvalues --    1.18816   1.20116   1.21660   1.22712   1.25262
 Alpha virt. eigenvalues --    1.27673   1.28641   1.32244   1.33598   1.39560
 Alpha virt. eigenvalues --    1.41255   1.43685   1.46191   1.48207   1.48990
 Alpha virt. eigenvalues --    1.51165   1.54141   1.56417   1.61406   1.71037
 Alpha virt. eigenvalues --    1.76421   1.92201   1.93801   2.08507
          Condensed to atoms (all electrons):
               1          2          3          4          5          6
     1  C    5.010764   0.529541  -0.067844  -0.043868  -0.055922   0.496991
     2  C    0.529541   5.012044   0.512632  -0.040287  -0.034839  -0.035626
     3  C   -0.067844   0.512632   5.018012   0.510326  -0.059523  -0.037861
     4  C   -0.043868  -0.040287   0.510326   4.963464   0.533839  -0.046562
     5  C   -0.055922  -0.034839  -0.059523   0.533839   4.924480   0.536267
     6  C    0.496991  -0.035626  -0.037861  -0.046562   0.536267   4.950063
     7  H    0.350070  -0.035691   0.004661   0.000370   0.004214  -0.035205
     8  H    0.005686  -0.042923   0.344215  -0.029652   0.005196   0.000304
     9  H    0.000839   0.003990  -0.029134   0.349038  -0.037035   0.004076
    10  H    0.004628   0.000550   0.004739  -0.034179   0.352191  -0.035862
    11  H   -0.031003   0.003923   0.000778   0.004289  -0.035554   0.351237
    12  C   -0.049426   0.170942  -0.037492   0.007586   0.000323   0.007196
    13  H   -0.002767  -0.052397   0.000527  -0.000092   0.000004   0.000047
    14  C    0.004849  -0.020556  -0.009563   0.000110  -0.000005  -0.000242
    15  H    0.001094   0.002727   0.000293  -0.000213  -0.000008  -0.000046
    16  C   -0.000707  -0.011414  -0.011906   0.000561  -0.000028   0.000011
    17  C   -0.000038   0.000491  -0.020634   0.000479  -0.000016  -0.000002
    18  C   -0.000029  -0.002166  -0.001261   0.000106  -0.000006  -0.000000
    19  C    0.000001   0.000193  -0.000893  -0.000046  -0.000000  -0.000000
    20  H   -0.000001  -0.000006   0.000395  -0.000020  -0.000000   0.000000
    21  C    0.000005  -0.000069   0.000501  -0.000026   0.000001   0.000000
    22  H   -0.000027  -0.000041  -0.000009  -0.000002   0.000000  -0.000001
    23  C    0.000000   0.000024   0.000467  -0.000028   0.000000  -0.000000
    24  H    0.000000   0.000000  -0.000047   0.000001   0.000000  -0.000000
    25  H   -0.000000  -0.000002  -0.000004  -0.000000   0.000000  -0.000000
    26  H    0.000000   0.000000  -0.000003  -0.000000   0.000000  -0.000000
    27  N   -0.005275  -0.068111   0.003463  -0.000077  -0.000026   0.000570
    28  N   -0.000095   0.005285   0.000246  -0.000002   0.000000   0.000000
    29  C    0.000399   0.007125  -0.000261   0.000003   0.000000  -0.000004
    30  H   -0.000024  -0.000208   0.000003  -0.000000  -0.000000   0.000000
    31  C    0.000001  -0.000312   0.000036   0.000000  -0.000000   0.000000
    32  H    0.000000   0.000051  -0.000012  -0.000000   0.000000  -0.000000
    33  C    0.000015  -0.000933  -0.000009   0.000000  -0.000000   0.000003
    34  H   -0.000007   0.000014   0.000000  -0.000000   0.000000  -0.000000
    35  H    0.000012   0.000011   0.000002  -0.000000   0.000000   0.000000
    36  H    0.000530  -0.000011  -0.000004  -0.000000  -0.000000   0.000002
    37  C   -0.000000  -0.000006   0.000001  -0.000000  -0.000000   0.000000
    38  H    0.000000  -0.000000   0.000000  -0.000000   0.000000  -0.000000
    39  H    0.000000   0.000000   0.000000  -0.000000   0.000000  -0.000000
    40  H    0.000000   0.000004  -0.000000  -0.000000   0.000000  -0.000000
               7          8          9         10         11         12
     1  C    0.350070   0.005686   0.000839   0.004628  -0.031003  -0.049426
     2  C   -0.035691  -0.042923   0.003990   0.000550   0.003923   0.170942
     3  C    0.004661   0.344215  -0.029134   0.004739   0.000778  -0.037492
     4  C    0.000370  -0.029652   0.349038  -0.034179   0.004289   0.007586
     5  C    0.004214   0.005196  -0.037035   0.352191  -0.035554   0.000323
     6  C   -0.035205   0.000304   0.004076  -0.035862   0.351237   0.007196
     7  H    0.570445  -0.000167   0.000014  -0.000156  -0.003757  -0.009848
     8  H   -0.000167   0.605470  -0.004431  -0.000177   0.000010  -0.012651
     9  H    0.000014  -0.004431   0.584103  -0.003940  -0.000169  -0.000200
    10  H   -0.000156  -0.000177  -0.003940   0.586137  -0.004335   0.000005
    11  H   -0.003757   0.000010  -0.000169  -0.004335   0.581071  -0.000185
    12  C   -0.009848  -0.012651  -0.000200   0.000005  -0.000185   5.480684
    13  H    0.000725   0.000047   0.000002  -0.000000   0.000003   0.355639
    14  C    0.000437  -0.006883   0.000026  -0.000000   0.000001   0.170903
    15  H    0.000034   0.001212   0.000005  -0.000000   0.000000  -0.066924
    16  C   -0.000008  -0.002205   0.000063   0.000000   0.000000  -0.016503
    17  C    0.000001  -0.001919   0.000139   0.000000  -0.000000   0.004776
    18  C    0.000001  -0.007415  -0.000001   0.000000  -0.000000  -0.013107
    19  C   -0.000000  -0.000249   0.000059   0.000000  -0.000000  -0.000404
    20  H    0.000000  -0.001261   0.000011   0.000000   0.000000   0.000238
    21  C    0.000000  -0.000449  -0.000004  -0.000000   0.000000   0.000138
    22  H    0.000002   0.000283  -0.000000  -0.000000   0.000000  -0.003780
    23  C   -0.000000  -0.000188  -0.000003  -0.000000   0.000000  -0.000012
    24  H    0.000000   0.000154  -0.000000   0.000000  -0.000000   0.000001
    25  H    0.000000   0.000010  -0.000000   0.000000  -0.000000   0.000016
    26  H    0.000000   0.000007  -0.000000   0.000000  -0.000000  -0.000000
    27  N    0.010454  -0.000022   0.000001   0.000000   0.000003   0.277020
    28  N    0.000004   0.000412  -0.000000  -0.000000  -0.000000  -0.067838
    29  C    0.001026  -0.000003  -0.000000   0.000000  -0.000000  -0.070538
    30  H    0.000024   0.000000   0.000000  -0.000000  -0.000000   0.007313
    31  C   -0.000000   0.000076  -0.000000  -0.000000   0.000000   0.009449
    32  H    0.000000   0.000023  -0.000000   0.000000  -0.000000  -0.000470
    33  C   -0.000014  -0.000002   0.000000   0.000000   0.000000  -0.023077
    34  H   -0.000008   0.000000   0.000000  -0.000000   0.000000   0.001156
    35  H    0.000015   0.000001   0.000000   0.000000  -0.000000  -0.000651
    36  H    0.000296  -0.000001   0.000000  -0.000000  -0.000000  -0.001914
    37  C   -0.000000  -0.000005  -0.000000  -0.000000   0.000000  -0.000131
    38  H   -0.000000   0.000000  -0.000000  -0.000000   0.000000   0.000011
    39  H    0.000000   0.000000  -0.000000  -0.000000   0.000000  -0.000013
    40  H    0.000000   0.000001  -0.000000   0.000000  -0.000000  -0.000132
              13         14         15         16         17         18
     1  C   -0.002767   0.004849   0.001094  -0.000707  -0.000038  -0.000029
     2  C   -0.052397  -0.020556   0.002727  -0.011414   0.000491  -0.002166
     3  C    0.000527  -0.009563   0.000293  -0.011906  -0.020634  -0.001261
     4  C   -0.000092   0.000110  -0.000213   0.000561   0.000479   0.000106
     5  C    0.000004  -0.000005  -0.000008  -0.000028  -0.000016  -0.000006
     6  C    0.000047  -0.000242  -0.000046   0.000011  -0.000002  -0.000000
     7  H    0.000725   0.000437   0.000034  -0.000008   0.000001   0.000001
     8  H    0.000047  -0.006883   0.001212  -0.002205  -0.001919  -0.007415
     9  H    0.000002   0.000026   0.000005   0.000063   0.000139  -0.000001
    10  H   -0.000000  -0.000000  -0.000000   0.000000   0.000000   0.000000
    11  H    0.000003   0.000001   0.000000   0.000000  -0.000000  -0.000000
    12  C    0.355639   0.170903  -0.066924  -0.016503   0.004776  -0.013107
    13  H    0.648952  -0.062858   0.007425  -0.007812   0.000340   0.005200
    14  C   -0.062858   5.302734   0.361506   0.206301  -0.033589  -0.034725
    15  H    0.007425   0.361506   0.676972  -0.068226  -0.007170   0.008475
    16  C   -0.007812   0.206301  -0.068226   5.155190   0.506208   0.502442
    17  C    0.000340  -0.033589  -0.007170   0.506208   5.049892  -0.078455
    18  C    0.005200  -0.034725   0.008475   0.502442  -0.078455   5.001767
    19  C   -0.000006   0.005863   0.000608  -0.042101   0.503189  -0.035738
    20  H    0.000018  -0.006603   0.006689  -0.040953   0.355677   0.005119
    21  C    0.000299   0.005788  -0.000093  -0.043675  -0.036584   0.506929
    22  H    0.008393  -0.006083   0.000180  -0.040282   0.004323   0.352454
    23  C   -0.000005   0.000393  -0.000029  -0.032842  -0.058212  -0.058008
    24  H    0.000000  -0.000156   0.000001   0.004068  -0.031974   0.000654
    25  H    0.000022  -0.000173   0.000002   0.004027   0.000764  -0.031306
    26  H    0.000000   0.000003  -0.000000   0.000352   0.004804   0.004794
    27  N   -0.063744  -0.068033  -0.000006   0.007040  -0.000101   0.000084
    28  N    0.000168   0.307757  -0.069480  -0.088150  -0.000683   0.001978
    29  C   -0.009778  -0.007170   0.000643   0.000353  -0.000005   0.000052
    30  H   -0.000889   0.000072  -0.000030  -0.000027  -0.000000   0.000002
    31  C    0.000257  -0.057243  -0.003288  -0.026399   0.004059  -0.001964
    32  H    0.000024  -0.008966   0.013190  -0.003857  -0.000594   0.000407
    33  C    0.020955  -0.001284  -0.000003   0.000508   0.000001  -0.000512
    34  H   -0.000317  -0.000047   0.000001  -0.000004  -0.000000   0.000006
    35  H   -0.003680   0.001720   0.000051  -0.000481   0.000001   0.000249
    36  H    0.002634   0.000166   0.000002   0.000022  -0.000000  -0.000067
    37  C   -0.000056   0.005173  -0.001549   0.005815  -0.000202  -0.000507
    38  H    0.000001  -0.000090   0.000029  -0.000035   0.000012   0.000024
    39  H    0.000000  -0.000472   0.000067   0.000525   0.000627   0.000249
    40  H    0.000007   0.000041   0.000145  -0.000821  -0.000070   0.001761
              19         20         21         22         23         24
     1  C    0.000001  -0.000001   0.000005  -0.000027   0.000000   0.000000
     2  C    0.000193  -0.000006  -0.000069  -0.000041   0.000024   0.000000
     3  C   -0.000893   0.000395   0.000501  -0.000009   0.000467  -0.000047
     4  C   -0.000046  -0.000020  -0.000026  -0.000002  -0.000028   0.000001
     5  C   -0.000000  -0.000000   0.000001   0.000000   0.000000   0.000000
     6  C   -0.000000   0.000000   0.000000  -0.000001  -0.000000  -0.000000
     7  H   -0.000000   0.000000   0.000000   0.000002  -0.000000   0.000000
     8  H   -0.000249  -0.001261  -0.000449   0.000283  -0.000188   0.000154
     9  H    0.000059   0.000011  -0.000004  -0.000000  -0.000003  -0.000000
    10  H    0.000000   0.000000  -0.000000  -0.000000  -0.000000   0.000000
    11  H   -0.000000   0.000000   0.000000   0.000000   0.000000  -0.000000
    12  C   -0.000404   0.000238   0.000138  -0.003780  -0.000012   0.000001
    13  H   -0.000006   0.000018   0.000299   0.008393  -0.000005   0.000000
    14  C    0.005863  -0.006603   0.005788  -0.006083   0.000393  -0.000156
    15  H    0.000608   0.006689  -0.000093   0.000180  -0.000029   0.000001
    16  C   -0.042101  -0.040953  -0.043675  -0.040282  -0.032842   0.004068
    17  C    0.503189   0.355677  -0.036584   0.004323  -0.058212  -0.031974
    18  C   -0.035738   0.005119   0.506929   0.352454  -0.058008   0.000654
    19  C    4.925778  -0.032194  -0.048557   0.000384   0.535646   0.353689
    20  H   -0.032194   0.559198   0.000279  -0.000148   0.004234  -0.003863
    21  C   -0.048557   0.000279   4.932967  -0.027971   0.536247   0.004317
    22  H    0.000384  -0.000148  -0.027971   0.549240   0.004090   0.000010
    23  C    0.535646   0.004234   0.536247   0.004090   4.914791  -0.034313
    24  H    0.353689  -0.003863   0.004317   0.000010  -0.034313   0.567155
    25  H    0.004197   0.000011   0.353222  -0.003724  -0.034213  -0.000159
    26  H   -0.035036  -0.000147  -0.034298  -0.000149   0.355903  -0.004257
    27  N    0.000000   0.000001  -0.000006  -0.000095   0.000000  -0.000000
    28  N   -0.000165  -0.000191   0.000167   0.001700   0.000010   0.000001
    29  C    0.000000   0.000000  -0.000000  -0.000116  -0.000000  -0.000000
    30  H    0.000000  -0.000000   0.000000  -0.000000  -0.000000  -0.000000
    31  C   -0.000199   0.000932  -0.000086   0.000204   0.000030   0.000006
    32  H    0.000047   0.000818   0.000002   0.000015  -0.000001   0.000000
    33  C   -0.000000   0.000000  -0.000003   0.000256   0.000000  -0.000000
    34  H    0.000000  -0.000000   0.000000  -0.000015  -0.000000   0.000000
    35  H    0.000000   0.000000   0.000008   0.001527   0.000000   0.000000
    36  H    0.000000   0.000000  -0.000001   0.000036   0.000000  -0.000000
    37  C   -0.000126  -0.000127  -0.000027  -0.000161  -0.000008  -0.000001
    38  H   -0.000001   0.000002   0.000001   0.000002  -0.000000   0.000000
    39  H    0.000205   0.000004  -0.000034   0.000000  -0.000024  -0.000001
    40  H   -0.000006   0.000006   0.000116   0.000343  -0.000001   0.000000
              25         26         27         28         29         30
     1  C   -0.000000   0.000000  -0.005275  -0.000095   0.000399  -0.000024
     2  C   -0.000002   0.000000  -0.068111   0.005285   0.007125  -0.000208
     3  C   -0.000004  -0.000003   0.003463   0.000246  -0.000261   0.000003
     4  C   -0.000000  -0.000000  -0.000077  -0.000002   0.000003  -0.000000
     5  C    0.000000   0.000000  -0.000026   0.000000   0.000000  -0.000000
     6  C   -0.000000  -0.000000   0.000570   0.000000  -0.000004   0.000000
     7  H    0.000000   0.000000   0.010454   0.000004   0.001026   0.000024
     8  H    0.000010   0.000007  -0.000022   0.000412  -0.000003   0.000000
     9  H   -0.000000  -0.000000   0.000001  -0.000000  -0.000000   0.000000
    10  H    0.000000   0.000000   0.000000  -0.000000   0.000000  -0.000000
    11  H   -0.000000  -0.000000   0.000003  -0.000000  -0.000000  -0.000000
    12  C    0.000016  -0.000000   0.277020  -0.067838  -0.070538   0.007313
    13  H    0.000022   0.000000  -0.063744   0.000168  -0.009778  -0.000889
    14  C   -0.000173   0.000003  -0.068033   0.307757  -0.007170   0.000072
    15  H    0.000002  -0.000000  -0.000006  -0.069480   0.000643  -0.000030
    16  C    0.004027   0.000352   0.007040  -0.088150   0.000353  -0.000027
    17  C    0.000764   0.004804  -0.000101  -0.000683  -0.000005  -0.000000
    18  C   -0.031306   0.004794   0.000084   0.001978   0.000052   0.000002
    19  C    0.004197  -0.035036   0.000000  -0.000165   0.000000   0.000000
    20  H    0.000011  -0.000147   0.000001  -0.000191   0.000000  -0.000000
    21  C    0.353222  -0.034298  -0.000006   0.000167  -0.000000   0.000000
    22  H   -0.003724  -0.000149  -0.000095   0.001700  -0.000116  -0.000000
    23  C   -0.034213   0.355903   0.000000   0.000010  -0.000000  -0.000000
    24  H   -0.000159  -0.004257  -0.000000   0.000001  -0.000000  -0.000000
    25  H    0.566826  -0.004203  -0.000000   0.000003   0.000000  -0.000000
    26  H   -0.004203   0.569569  -0.000000   0.000000   0.000000  -0.000000
    27  N   -0.000000  -0.000000   6.909405  -0.004258   0.508708  -0.051361
    28  N    0.000003   0.000000  -0.004258   6.934465   0.015806  -0.000192
    29  C    0.000000   0.000000   0.508708   0.015806   4.918126   0.370094
    30  H   -0.000000  -0.000000  -0.051361  -0.000192   0.370094   0.591670
    31  C    0.000003  -0.000000   0.000284   0.526907  -0.000429   0.000060
    32  H    0.000000  -0.000000  -0.000102  -0.077878   0.000080  -0.000001
    33  C   -0.000000   0.000000  -0.087725  -0.004437   0.276501  -0.076408
    34  H    0.000000  -0.000000   0.004261   0.000068  -0.021896  -0.000387
    35  H   -0.000000  -0.000000  -0.000351   0.006044  -0.027365   0.003574
    36  H   -0.000000   0.000000  -0.006882   0.000092  -0.033540   0.002863
    37  C   -0.000001   0.000000   0.000031  -0.108201  -0.000063  -0.000001
    38  H    0.000000  -0.000000  -0.000000   0.003097   0.000003  -0.000000
    39  H   -0.000001   0.000000  -0.000000   0.001788   0.000000   0.000000
    40  H   -0.000001  -0.000000  -0.000013   0.011192   0.000030   0.000000
              31         32         33         34         35         36
     1  C    0.000001   0.000000   0.000015  -0.000007   0.000012   0.000530
     2  C   -0.000312   0.000051  -0.000933   0.000014   0.000011  -0.000011
     3  C    0.000036  -0.000012  -0.000009   0.000000   0.000002  -0.000004
     4  C    0.000000  -0.000000   0.000000  -0.000000  -0.000000  -0.000000
     5  C   -0.000000   0.000000  -0.000000   0.000000   0.000000  -0.000000
     6  C    0.000000  -0.000000   0.000003  -0.000000   0.000000   0.000002
     7  H   -0.000000   0.000000  -0.000014  -0.000008   0.000015   0.000296
     8  H    0.000076   0.000023  -0.000002   0.000000   0.000001  -0.000001
     9  H   -0.000000  -0.000000   0.000000   0.000000   0.000000   0.000000
    10  H   -0.000000   0.000000   0.000000  -0.000000   0.000000  -0.000000
    11  H    0.000000  -0.000000   0.000000   0.000000  -0.000000  -0.000000
    12  C    0.009449  -0.000470  -0.023077   0.001156  -0.000651  -0.001914
    13  H    0.000257   0.000024   0.020955  -0.000317  -0.003680   0.002634
    14  C   -0.057243  -0.008966  -0.001284  -0.000047   0.001720   0.000166
    15  H   -0.003288   0.013190  -0.000003   0.000001   0.000051   0.000002
    16  C   -0.026399  -0.003857   0.000508  -0.000004  -0.000481   0.000022
    17  C    0.004059  -0.000594   0.000001  -0.000000   0.000001  -0.000000
    18  C   -0.001964   0.000407  -0.000512   0.000006   0.000249  -0.000067
    19  C   -0.000199   0.000047  -0.000000   0.000000   0.000000   0.000000
    20  H    0.000932   0.000818   0.000000  -0.000000   0.000000   0.000000
    21  C   -0.000086   0.000002  -0.000003   0.000000   0.000008  -0.000001
    22  H    0.000204   0.000015   0.000256  -0.000015   0.001527   0.000036
    23  C    0.000030  -0.000001   0.000000  -0.000000   0.000000   0.000000
    24  H    0.000006   0.000000  -0.000000   0.000000   0.000000  -0.000000
    25  H    0.000003   0.000000  -0.000000   0.000000  -0.000000  -0.000000
    26  H   -0.000000  -0.000000   0.000000  -0.000000  -0.000000   0.000000
    27  N    0.000284  -0.000102  -0.087725   0.004261  -0.000351  -0.006882
    28  N    0.526907  -0.077878  -0.004437   0.000068   0.006044   0.000092
    29  C   -0.000429   0.000080   0.276501  -0.021896  -0.027365  -0.033540
    30  H    0.000060  -0.000001  -0.076408  -0.000387   0.003574   0.002863
    31  C    4.912233   0.323512  -0.000023   0.000001   0.000045  -0.000000
    32  H    0.323512   0.714362  -0.000008   0.000000   0.000017   0.000000
    33  C   -0.000023  -0.000008   5.300455   0.351784   0.348886   0.381261
    34  H    0.000001   0.000000   0.351784   0.569346  -0.023400  -0.029910
    35  H    0.000045   0.000017   0.348886  -0.023400   0.541947  -0.027586
    36  H   -0.000000   0.000000   0.381261  -0.029910  -0.027586   0.542586
    37  C    0.282906  -0.096205   0.000046  -0.000001  -0.000182  -0.000000
    38  H   -0.025287   0.005665  -0.000001   0.000000   0.000005   0.000000
    39  H   -0.026312   0.001763  -0.000000   0.000000   0.000002   0.000000
    40  H   -0.027542   0.006000  -0.000062   0.000001   0.000373   0.000000
              37         38         39         40
     1  C   -0.000000   0.000000   0.000000   0.000000
     2  C   -0.000006  -0.000000   0.000000   0.000004
     3  C    0.000001   0.000000   0.000000  -0.000000
     4  C   -0.000000  -0.000000  -0.000000  -0.000000
     5  C   -0.000000   0.000000   0.000000   0.000000
     6  C    0.000000  -0.000000  -0.000000  -0.000000
     7  H   -0.000000  -0.000000   0.000000   0.000000
     8  H   -0.000005   0.000000   0.000000   0.000001
     9  H   -0.000000  -0.000000  -0.000000  -0.000000
    10  H   -0.000000  -0.000000  -0.000000   0.000000
    11  H    0.000000   0.000000   0.000000  -0.000000
    12  C   -0.000131   0.000011  -0.000013  -0.000132
    13  H   -0.000056   0.000001   0.000000   0.000007
    14  C    0.005173  -0.000090  -0.000472   0.000041
    15  H   -0.001549   0.000029   0.000067   0.000145
    16  C    0.005815  -0.000035   0.000525  -0.000821
    17  C   -0.000202   0.000012   0.000627  -0.000070
    18  C   -0.000507   0.000024   0.000249   0.001761
    19  C   -0.000126  -0.000001   0.000205  -0.000006
    20  H   -0.000127   0.000002   0.000004   0.000006
    21  C   -0.000027   0.000001  -0.000034   0.000116
    22  H   -0.000161   0.000002   0.000000   0.000343
    23  C   -0.000008  -0.000000  -0.000024  -0.000001
    24  H   -0.000001   0.000000  -0.000001   0.000000
    25  H   -0.000001   0.000000  -0.000001  -0.000001
    26  H    0.000000  -0.000000   0.000000  -0.000000
    27  N    0.000031  -0.000000  -0.000000  -0.000013
    28  N   -0.108201   0.003097   0.001788   0.011192
    29  C   -0.000063   0.000003   0.000000   0.000030
    30  H   -0.000001  -0.000000   0.000000   0.000000
    31  C    0.282906  -0.025287  -0.026312  -0.027542
    32  H   -0.096205   0.005665   0.001763   0.006000
    33  C    0.000046  -0.000001  -0.000000  -0.000062
    34  H   -0.000001   0.000000   0.000000   0.000001
    35  H   -0.000182   0.000005   0.000002   0.000373
    36  H   -0.000000   0.000000   0.000000   0.000000
    37  C    5.312900   0.336460   0.360267   0.350433
    38  H    0.336460   0.568838  -0.025317  -0.022208
    39  H    0.360267  -0.025317   0.540502  -0.025183
    40  H    0.350433  -0.022208  -0.025183   0.540660
 Mulliken charges:
               1
     1  C   -0.148391
     2  C    0.096052
     3  C   -0.124838
     4  C   -0.175114
     5  C   -0.133552
     6  C   -0.155357
     7  H    0.142062
     8  H    0.147496
     9  H    0.132550
    10  H    0.130398
    11  H    0.133690
    12  C   -0.118101
    13  H    0.152713
    14  C   -0.049104
    15  H    0.135716
    16  C    0.044950
    17  C   -0.165534
    18  C   -0.127484
    19  C   -0.134137
    20  H    0.151879
    21  C   -0.149102
    22  H    0.159161
    23  C   -0.133947
    24  H    0.144713
    25  H    0.144683
    26  H    0.142661
    27  N   -0.365137
    28  N   -0.395619
    29  C    0.072223
    30  H    0.153852
    31  C    0.108085
    32  H    0.122116
    33  C   -0.486170
    34  H    0.149354
    35  H    0.179203
    36  H    0.169428
    37  C   -0.446471
    38  H    0.158789
    39  H    0.171359
    40  H    0.164928
 Sum of Mulliken charges =  -0.00000
 Mulliken charges with hydrogens summed into heavy atoms:
               1
     1  C   -0.006328
     2  C    0.096052
     3  C    0.022658
     4  C   -0.042565
     5  C   -0.003154
     6  C   -0.021667
    12  C    0.034611
    14  C    0.086611
    16  C    0.044950
    17  C   -0.013655
    18  C    0.031677
    19  C    0.010575
    21  C   -0.004418
    23  C    0.008714
    27  N   -0.365137
    28  N   -0.395619
    29  C    0.226075
    31  C    0.230201
    33  C    0.011815
    37  C    0.048604
 Electronic spatial extent (au):  <R**2>=           5495.2006
 Charge=             -0.0000 electrons
 Dipole moment (field-independent basis, Debye):
    X=             -3.4625    Y=             -1.0613    Z=              1.1467  Tot=              3.7987
 Quadrupole moment (field-independent basis, Debye-Ang):
   XX=           -111.5037   YY=           -109.2498   ZZ=           -114.1983
   XY=              0.8620   XZ=              4.9522   YZ=              5.8591
 Traceless Quadrupole moment (field-independent basis, Debye-Ang):
   XX=              0.1469   YY=              2.4008   ZZ=             -2.5477
   XY=              0.8620   XZ=              4.9522   YZ=              5.8591
 Octapole moment (field-independent basis, Debye-Ang**2):
  XXX=             -9.0631  YYY=              7.6774  ZZZ=              6.3848  XYY=            -15.0845
  XXY=             -0.6353  XXZ=             -6.9809  XZZ=            -28.3106  YZZ=              0.1874
  YYZ=              9.8382  XYZ=             15.4917
 Hexadecapole moment (field-independent basis, Debye-Ang**3):
 XXXX=          -3679.9445 YYYY=          -2584.8906 ZZZZ=           -739.1095 XXXY=            -64.1728
 XXXZ=             50.3455 YYYX=             45.5203 YYYZ=             44.4496 ZZZX=             10.0114
 ZZZY=            -10.3508 XXYY=          -1068.7530 XXZZ=           -794.8695 YYZZ=           -584.1514
 XXYZ=             -4.0159 YYXZ=              2.8855 ZZXY=             15.4081
 N-N= 1.501480932611D+03 E-N=-4.876871179206D+03  KE= 8.030264516735D+02
 D1PCM: PCM CHGder 1st derivatives, ID1Alg=3 FixD1E=F DoIter=F DoCFld=F I1PDM=0.
 Calling FoFJK, ICntrl=      2127 FMM=F ISym2X=0 I1Cent= 0 IOpClX= 0 NMat=1 NMatS=1 NMatT=0.
 ***** Axes restored to original set *****
 -------------------------------------------------------------------
 Center     Atomic                   Forces (Hartrees/Bohr)
 Number     Number              X              Y              Z
 -------------------------------------------------------------------
      1        6          -0.010180036   -0.007921560    0.001231053
      2        6           0.008899317   -0.015868173    0.002590779
      3        6           0.006524473    0.013000772   -0.000386559
      4        6           0.004580404    0.010705120    0.000255111
      5        6          -0.007879151    0.014487960    0.000089107
      6        6          -0.013124588   -0.000220817    0.000418033
      7        1           0.005746409    0.008042362   -0.001282995
      8        1          -0.025881041    0.007748454    0.000673930
      9        1          -0.004258462   -0.007671895   -0.000151968
     10        1           0.004280126   -0.007669206   -0.000066034
     11        1           0.008870896   -0.000146464   -0.000094150
     12        6          -0.037361921    0.016726751   -0.009413724
     13        1           0.005890188   -0.000537530    0.015651949
     14        6          -0.013134009   -0.016656866   -0.008664916
     15        1          -0.006375036    0.017103826   -0.015806017
     16        6           0.000290894   -0.019018768   -0.006470070
     17        6           0.011641300    0.001551478   -0.011873045
     18        6          -0.001096764   -0.009229816    0.007931851
     19        6           0.007737430    0.009755924   -0.006692676
     20        1          -0.000231999   -0.001826153    0.008497953
     21        6           0.001032295   -0.002571298    0.013328030
     22        1           0.008291087    0.008015133   -0.003039496
     23        6           0.009259380    0.008436128    0.010033552
     24        1          -0.005281263   -0.006673653    0.003450417
     25        1          -0.000580914    0.001821468   -0.009065719
     26        1          -0.005736947   -0.004839775   -0.005368694
     27        7           0.024299292   -0.015519998   -0.035006283
     28        7           0.034708068    0.009000821    0.045808263
     29        6           0.001945979    0.032965467    0.037214701
     30        1          -0.015115469   -0.009819339   -0.007793849
     31        6          -0.008864265   -0.024268837    0.024807406
     32        1           0.015877206    0.020349256   -0.015806738
     33        6           0.002084723   -0.007522028   -0.032945618
     34        1          -0.005874324   -0.015505360    0.005602295
     35        1           0.017582845   -0.003513791    0.007750221
     36        1          -0.007160063    0.009723726    0.010457734
     37        6          -0.031748726   -0.006239000   -0.029538839
     38        1           0.013731544   -0.016842602   -0.006544569
     39        1           0.013363916    0.013511376   -0.002581821
     40        1          -0.006752795   -0.002863093    0.012801393
 -------------------------------------------------------------------
 Cartesian Forces:  Max     0.045808263 RMS     0.013865542

 GradGradGradGradGradGradGradGradGradGradGradGradGradGradGradGradGradGrad
 Berny optimization.
 FormGI is forming the generalized inverse of G from B-inverse, IUseBI=4.
 Internal  Forces:  Max     0.075050939 RMS     0.013754432
 Search for a local minimum.
 Step number   1 out of a maximum of  210
 All quantities printed in internal units (Hartrees-Bohrs-Radians)
 Mixed Optimization -- RFO/linear search
 Second derivative matrix not updated -- first step.
 ITU=  0
     Eigenvalues ---    0.00237   0.00237   0.00237   0.00237   0.00237
     Eigenvalues ---    0.00766   0.00766   0.00952   0.00956   0.01388
     Eigenvalues ---    0.01388   0.02152   0.02152   0.02153   0.02153
     Eigenvalues ---    0.02154   0.02154   0.02155   0.02155   0.02155
     Eigenvalues ---    0.02155   0.02155   0.02155   0.02156   0.02156
     Eigenvalues ---    0.02157   0.02157   0.03099   0.03099   0.05077
     Eigenvalues ---    0.05077   0.05368   0.05368   0.07243   0.07243
     Eigenvalues ---    0.07243   0.07243   0.07456   0.07456   0.16000
     Eigenvalues ---    0.16000   0.16000   0.16000   0.16000   0.16000
[...]
 343,-0.00000793,-0.00000754,-0.00000532,0.00000158,-0.00000088,-0.0000
 0012,0.00000168,0.00002056,-0.00000899,-0.00001114,0.00000187,-0.00000
 696,0.00000401,-0.00000544,0.00001304,0.00000216,0.00000213,-0.0000021
 8,0.00000010,-0.00000028,0.00000269,0.00000267,0.00000262,0.00000053,0
 .00200081,-0.00157839,0.00060754,-0.00000367,0.00002592,-0.00001544,-0
 .00794895,0.00791068,0.00725384,0.00097417,0.00009648,0.00023600,0.000
 00927,-0.00002760,0.00002936,-0.00000496,0.00000646,-0.00001146,0.0732
 8907,-0.13969481,-0.09816468,0.01645853,-0.01824740,-0.02072904,-0.001
 37765,0.00035885,0.00012204,-0.08216434,0.15165719,0.00000475,0.000005
 66,-0.00005270,0.00002809,-0.00009972,0.00014813,-0.00005269,-0.000009
 42,-0.00006539,-0.00004842,0.00005742,0.00003401,-0.00000451,0.0000209
 8,0.00004497,0.00003795,-0.00002268,0.00000997,0.00000004,-0.00005840,
 0.00008708,0.00005410,0.00001958,0.00004981,-0.00000334,0.00000953,0.0
 0000120,0.00000058,0.00000369,0.00000601,0.00000616,0.00000535,-0.0000
 0340,0.00169495,-0.00030777,-0.00024185,0.00083379,0.00073009,0.000246
 13,0.00006740,0.00018915,0.00054343,-0.00010962,-0.00001072,-0.0000086
 5,0.00011060,0.00000989,-0.00010948,0.00002204,-0.00001256,0.00002370,
 0.00001598,0.00003113,-0.00000787,-0.00000233,0.00001503,0.00002033,0.
 00000432,-0.00000306,-0.00000731,-0.00001566,-0.00000828,0.00000348,0.
 00000497,-0.00000910,0.00000066,0.00000343,0.00001799,-0.00000927,0.00
 000142,0.00000621,0.00000073,0.00000290,-0.00000009,0.00000349,0.00000
 389,0.00000120,0.00000021,-0.00493851,0.00062149,0.00143071,0.00000125
 ,0.00001223,-0.00001550,0.01486979,-0.01870060,-0.02344141,-0.00109460
 ,0.00140409,-0.00280399,-0.00002368,0.00004076,0.00003467,-0.00001234,
 -0.00001309,-0.00000219,0.08301468,-0.10116844,-0.15561430,-0.00181902
 ,0.00300394,0.00290650,-0.00406189,0.00398681,0.00488797,-0.08860894,0
 .11023112,0.17190411,0.00001952,-0.00004190,-0.00001619,0.00043780,0.0
 0016726,-0.00033632,0.00005049,-0.00003339,0.00003918,-0.00002933,-0.0
 0005191,0.00002874,0.00001442,-0.00003012,-0.00002580,-0.00004862,0.00
 000258,0.00001007,0.00002304,0.00000957,0.00001451,0.00002193,0.000013
 48,-0.00002292,0.00000225,-0.00000854,-0.00000220,0.00000755,0.0000047
 9,-0.00000298,0.00000313,0.00000140,0.00000130,0.00098101,-0.00229854,
 0.00018740,-0.00002490,-0.00001925,-0.00007130,0.01462960,0.00560195,0
 .00059498,-0.00004065,0.00013795,0.00004809,-0.00198693,0.00243582,-0.
 00044355,0.00034472,0.00032035,0.00055028,0.00012394,0.00011893,-0.000
 04159,0.00021594,0.00004800,-0.00013011,-0.00009075,0.00000925,0.00004
 832,0.00008184,-0.00009909,-0.00005992,-0.00008695,-0.00003682,0.00014
 519,0.00000190,0.00010193,0.00000289,0.00004930,0.00006367,0.00001289,
 0.00002195,0.00000572,0.00003220,-0.00001570,0.00002030,0.00002952,-0.
 00020111,-0.00024634,0.00004439,-0.01281562,0.01429322,0.00610700,0.00
 006202,0.00011071,0.00010700,-0.00001986,-0.00003275,-0.00001921,-0.10
 883382,0.05849218,-0.01041889,0.00352316,0.00567030,0.00149990,0.00001
 335,-0.00001055,-0.00000318,-0.00003642,-0.00001902,0.00000409,0.00004
 009,0.00004848,-0.00021523,-0.00003971,0.00001460,0.00000553,0.5281398
 0,0.00004882,-0.00010142,-0.00003796,0.00043370,0.00034415,-0.00032556
 ,0.00006621,-0.00007878,0.00007941,-0.00003246,-0.00004055,0.00002673,
 0.00002569,-0.00004362,-0.00001990,-0.00004278,0.00001022,0.00000264,-
 0.00000440,0.00001373,-0.00000515,0.00001187,0.00002391,-0.00001139,0.
 00000584,-0.00002447,-0.00001248,0.00001469,-0.00001103,-0.00000170,0.
 00001226,-0.00001303,0.00001652,0.00060507,-0.00212732,0.00008336,0.00
 003905,0.00005722,-0.00005890,0.00558097,0.00757121,0.00124703,0.00015
 168,-0.00030298,-0.00006647,-0.00052959,0.00091310,-0.00017663,0.00001
 251,0.00005734,0.00009452,-0.00005572,0.00004219,-0.00005814,0.0000596
 3,-0.00000528,-0.00002982,-0.00001061,0.00002214,0.00001739,0.00004925
 ,-0.00006016,-0.00001407,-0.00000201,-0.00000335,0.00017025,-0.0000338
 9,0.00001089,-0.00001227,0.00000828,-0.00001520,0.00000452,-0.00000420
 ,-0.00001015,-0.00002310,-0.00001954,-0.00001745,0.00000063,-0.0001651
 2,-0.00004595,-0.00005460,0.01316613,-0.02718332,-0.01201841,0.0000391
 7,-0.00002946,0.00007990,0.00001252,0.00003575,-0.00000779,0.05844291,
 -0.18893801,0.02132266,0.00729497,-0.00655697,-0.00211305,-0.00004208,
 0.00001092,-0.00006003,0.00001725,0.00002167,-0.00000233,-0.00003409,-
 0.00002138,-0.00000397,-0.00001930,0.00000112,-0.00000133,0.01534267,0
 .50747622,0.00006434,-0.00013460,-0.00007170,0.00030757,0.00035093,-0.
 00021555,0.00007146,-0.00007072,0.00007518,-0.00002541,-0.00002890,0.0
 0002898,0.00002726,-0.00004360,-0.00001534,-0.00004061,0.00000618,0.00
 001722,0.00001612,0.00001408,-0.00000941,0.00000291,0.00001911,0.00000
 085,0.00000509,-0.00002284,-0.00000934,0.00001315,-0.00000919,-0.00000
 035,0.00001955,-0.00001964,0.00001707,0.00016352,-0.00119453,0.0006476
 4,-0.00012188,0.00005733,0.00003402,0.00071982,0.00022311,-0.00197468,
 0.00058201,-0.00098717,0.00065132,0.00085101,-0.00030855,0.00066962,-0
 .00027187,-0.00020329,-0.00035584,-0.00004937,-0.00005474,0.00002900,-
 0.00009330,-0.00004388,0.00008156,0.00006575,-0.00001064,-0.00000663,0
 .00002292,0.00002295,0.00003680,0.00005647,-0.00000582,0.00007554,-0.0
 0003669,-0.00007315,-0.00001542,-0.00002687,-0.00005956,-0.00000955,-0
 .00002115,-0.00001940,-0.00004259,-0.00000500,-0.00002404,-0.00001605,
 -0.00009205,0.00003347,-0.00017839,0.01909359,-0.03550831,0.00006790,-
 0.00002992,-0.00012454,0.00025980,-0.00001383,0.00006433,-0.00003205,-
 0.01385487,0.02740158,-0.09529860,-0.01348625,0.02593745,0.00012742,0.
 00002703,0.00005668,-0.00000748,0.00002543,0.00002633,0.00000060,0.000
 03259,-0.00010561,-0.00004375,-0.00003760,-0.00000297,-0.00001697,-0.0
 0246446,-0.00147823,0.59899056,-0.00001101,0.00001882,0.00001007,-0.00
 012856,-0.00009143,0.00007061,-0.00001546,0.00001696,-0.00001071,0.000
 01398,0.00000852,-0.00000468,-0.00000565,0.00000793,0.00000156,0.00000
 918,0.00000149,-0.00000619,-0.00000425,0.00000281,-0.00000617,-0.00000
 510,-0.00000388,0.00000511,-0.00000067,0.00000336,0.00000058,-0.000002
 05,-0.00000124,0.00000023,-0.00000157,0.00000208,-0.00000106,-0.000091
 51,0.00060984,-0.00006054,-0.00000275,-0.00001975,0.00000182,-0.001959
 27,-0.00055560,0.00015124,-0.00002040,0.00004502,-0.00001333,0.0000949
 1,-0.00029081,-0.00002076,-0.00000810,-0.00000236,-0.00002864,0.000011
 67,-0.00000119,-0.00000380,-0.00001489,-0.00000216,0.00000214,0.000003
 77,-0.00000268,-0.00000073,0.00000273,0.00000719,0.00000915,-0.0000091
 5,0.00000132,-0.00001388,0.00000989,-0.00000238,0.00000745,-0.00000301
 ,-0.00000186,0.00000082,-0.00000095,0.00000581,0.00000637,-0.00000012,
 0.00000012,-0.00000051,0.00012558,-0.00003779,-0.00005231,-0.00019413,
 0.00213761,-0.00031010,-0.00000198,-0.00002783,0.00002791,-0.00004997,
 -0.00001913,-0.00000443,0.00904985,0.01572183,0.01045318,0.00007503,-0
 .00108172,-0.00010945,-0.00001399,-0.00001609,0.00000191,-0.00000789,-
 0.00000021,0.00000937,0.00000363,0.00001171,0.00003594,0.00001471,-0.0
 0000798,-0.00000715,-0.11178126,-0.09303633,-0.06688493,0.12342203,0.0
 0003334,-0.00006439,-0.00004527,0.00021434,0.00018279,-0.00011788,0.00
 004188,-0.00002448,0.00004064,-0.00001662,-0.00002011,0.00002182,0.000
 01474,-0.00002231,-0.00000828,-0.00002188,0.00000057,0.00000497,0.0000
 0088,0.00000095,-0.00000075,0.00000376,0.00001089,-0.00000077,0.000000
 79,-0.00001200,-0.00000440,0.00000766,-0.00000469,-0.00000046,0.000008
 29,-0.00001141,0.00001002,0.00008086,-0.00087278,0.00024333,0.00001046
 ,0.00004896,0.00000696,0.00242739,0.00132806,-0.00039644,0.00008510,-0
 .00017834,0.00013685,0.00003143,0.00035761,0.00013276,-0.00003401,-0.0
 0002564,-0.00004895,-0.00001174,-0.00003306,-0.00002902,0.00000086,-0.
 00000537,0.00000296,0.00000368,0.00000857,0.00000517,0.00001883,-0.000
 00819,0.00001110,0.00000600,0.00000394,0.00008082,-0.00001669,-0.00001
 615,-0.00000495,-0.00000543,-0.00001790,0.00000132,-0.00000755,-0.0000
 0570,-0.00001621,-0.00000800,-0.00001233,-0.00000459,-0.00000838,-0.00
 001595,-0.00005644,-0.00044103,-0.00382767,0.00158637,-0.00008152,-0.0
 0007362,-0.00000611,0.00006619,0.00006424,0.00001298,-0.01465120,-0.02
 177805,-0.01823010,0.00097140,0.00099463,0.00095354,0.00000473,0.00003
 058,-0.00000562,0.00001932,0.00001775,-0.00001385,-0.00000644,-0.00003
 157,-0.00000615,-0.00001725,0.00000405,0.00000663,-0.09390763,-0.17612
 088,-0.08788644,0.10112601,0.19459857,-0.00000093,0.00002324,-0.000003
 52,0.00000307,-0.00003441,0.00001759,-0.00000817,0.00002694,-0.0000118
 7,0.00000440,-0.00000082,0.00000364,-0.00000373,0.00000583,-0.00000302
 ,0.00000495,0.00000358,-0.00000113,-0.00000666,-0.00001024,0.00000931,
 -0.00000257,-0.00000427,0.00000090,-0.00000357,0.00000259,0.00000226,-
 0.00000260,0.00000143,0.00000045,-0.00000401,0.00000246,-0.00000206,-0
 .00009130,0.00003457,-0.00003040,0.00002439,0.00000599,-0.00000326,0.0
 0022403,-0.00034946,0.00049168,0.00005029,-0.00004980,-0.00002265,-0.0
 0002764,0.00008799,-0.00007372,0.00001140,0.00000681,0.00003503,0.0000
 1163,0.00002816,-0.00002587,0.00000895,0.00000705,0.00000024,-0.000005
 55,0.00000278,0.00000323,0.00000160,-0.00001332,0.00000008,-0.00001788
 ,-0.00000272,0.00000639,0.00000270,0.00001036,-0.00000446,0.00000199,0
 .00000242,0.00000211,-0.00000144,0.00000464,0.00000592,-0.00000211,-0.
 00000040,0.00000107,0.00000440,0.00004193,-0.00000554,-0.00051414,-0.0
 0072516,0.00069425,0.00001700,0.00001589,0.00000644,0.00004391,0.00000
 145,0.00002192,0.00332168,0.00136143,0.00069178,0.00013076,-0.00058713
 ,0.00000988,-0.00000671,0.00001997,0.00000921,0.00003758,0.00000663,-0
 .00001918,-0.00001695,-0.00004048,-0.00006351,-0.00002453,0.00002151,0
 .00000419,-0.06748483,-0.08683415,-0.11129287,0.07278309,0.10007096,0.
 11678336,-0.00001572,0.00003004,0.00000958,0.00000580,-0.00006225,0.00
 000846,-0.00001589,0.00001712,-0.00001863,0.00000097,0.00000204,-0.000
 00501,-0.00000567,0.00001068,0.00000159,0.00000591,-0.00000247,0.00000
 396,0.00000612,-0.00000831,0.00001146,0.00000238,-0.00000588,-0.000003
 71,-0.00000224,0.00000669,0.00000461,-0.00000463,0.00000630,0.00000028
 ,-0.00000607,0.00000562,-0.00000685,0.00012354,-0.00007959,-0.00013417
 ,0.00000157,-0.00001023,-0.00000551,0.00121068,0.00047340,0.00037239,-
 0.00006624,0.00011417,-0.00010029,-0.00041283,0.00022155,-0.00019442,0
 .00007277,0.00005676,0.00015788,0.00003279,0.00004170,0.00000133,0.000
 04912,0.00002157,-0.00002399,-0.00002859,-0.00000198,0.00000415,0.0000
 1112,-0.00001519,-0.00002113,-0.00002657,-0.00001498,-0.00002691,0.000
 01239,0.00003594,-0.00000189,0.00001339,0.00002568,0.00000257,0.000006
 86,0.00000495,0.00001837,0.00000014,0.00001380,0.00001017,-0.00008369,
 -0.00001114,0.00006264,-0.00191747,0.00075682,-0.00136129,0.00004424,0
 .00006458,-0.00003874,0.00000933,-0.00001360,0.00000455,-0.01245693,-0
 .00105189,0.00842241,0.00071206,0.00064133,-0.00065473,0.00001675,-0.0
 0000546,0.00001485,-0.00000308,-0.00001200,-0.00000296,-0.00000175,0.0
 0001460,-0.00005112,-0.00001222,0.00000998,0.00000725,-0.25974714,-0.0
 1329809,0.09745080,-0.01688222,-0.00134422,0.00829071,0.28526836,0.000
 00929,-0.00001238,-0.00000715,-0.00003508,0.00001744,0.00004416,0.0000
 0451,0.00000152,0.00000712,0.00000109,0.00000302,0.00000120,0.00000195
 ,-0.00000385,0.00000128,0.00000142,0.00000084,-0.00000153,-0.00000573,
 0.00000024,-0.00000471,-0.00000356,0.00000070,0.00000357,0.00000038,-0
 .00000259,-0.00000156,0.00000148,-0.00000274,0.00000013,0.00000312,-0.
 00000318,0.00000295,-0.00024895,0.00033668,0.00010809,0.00000821,0.000
 01738,0.00001059,-0.00266055,-0.00177570,-0.00071661,0.00006987,-0.000
 10288,0.00008024,0.00067061,-0.00053762,0.00029584,-0.00013521,-0.0001
 1672,-0.00020501,-0.00005398,-0.00005618,0.00000422,-0.00007837,-0.000
 03078,0.00005067,0.00004315,-0.00000251,-0.00001092,-0.00002626,0.0000
 3411,0.00001644,0.00003578,0.00001829,-0.00000438,-0.00001697,-0.00005
 231,-0.00000266,-0.00001717,-0.00003046,-0.00000719,-0.00000740,-0.000
 00867,-0.00002118,0.00000522,-0.00001138,-0.00001193,0.00010347,0.0000
 6045,-0.00008952,0.00325161,-0.00220516,0.00126101,-0.00005212,-0.0000
 9543,0.00005776,0.00003574,0.00002147,0.00000631,0.03113155,0.00009603
 ,-0.01631618,-0.00153941,0.00041632,0.00050805,-0.00001086,0.00003283,
 -0.00000162,0.00003074,0.00001535,-0.00001422,-0.00000038,-0.00005477,
 0.00001015,-0.00000839,0.00000839,-0.00000336,-0.01235196,-0.04608085,
 0.00940194,-0.02296164,-0.00153076,0.01016715,0.01305809,0.05258187,-0
 .00000072,0.00000593,0.00000784,-0.00003142,-0.00001378,0.00002030,-0.
 00000720,-0.00000073,-0.00000058,0.00000196,-0.00000053,-0.00000076,-0
 .00000106,0.00000005,-0.00000019,0.00000174,-0.00000067,-0.00000262,-0
 .00000258,0.00000063,-0.00000331,0.00000201,0.00000209,-0.00000214,0.0
 0000157,0.00000005,-0.00000152,0.00000056,-0.00000058,-0.00000016,-0.0
 0000085,0.00000153,-0.00000044,-0.00003036,0.00012191,-0.00007368,0.00
 000603,0.00000556,-0.00001024,0.00011436,-0.00044402,0.00045906,-0.000
 00332,-0.00005569,-0.00002140,-0.00002724,0.00010173,0.00001599,-0.000
 00199,-0.00002369,0.00003078,-0.00002242,0.00002750,-0.00000250,0.0000
 1189,0.00001194,0.00000714,-0.00000459,0.00000669,-0.00001080,-0.00003
 211,-0.00002071,-0.00000071,0.00002987,0.00000152,-0.00003516,-0.00001
 070,0.00001144,-0.00001810,0.00000577,0.00000480,-0.00000206,0.0000044
 4,-0.00000352,-0.00000653,0.00000512,-0.00000044,-0.00000194,0.0000145
 8,-0.00003275,0.00002457,0.00072431,-0.00008994,0.00071312,-0.00001274
 ,0.00002843,-0.00005712,-0.00000635,-0.00000451,0.00000630,-0.00265637
 ,-0.00209299,0.00033797,0.00038527,-0.00036892,-0.00000309,-0.00000758
 ,-0.00002288,-0.00000236,-0.00001338,-0.00000334,0.00000649,-0.0000040
 9,0.00003515,0.00003157,0.00002319,-0.00001035,0.00000266,0.09694925,0
 .01036519,-0.09335594,-0.01601015,-0.00179666,0.00635315,-0.10921911,-
 0.00750383,0.09695610,0.00000500,-0.00001213,-0.00000522,-0.00004148,0
 .00000138,0.00000719,0.00000247,-0.00000619,0.00000587,0.00000242,-0.0
 0000144,0.00000146,0.00000068,-0.00000311,-0.00000153,-0.00000053,0.00
 000156,0.00000082,0.00000122,0.00000445,-0.00000642,0.00000102,0.00000
 370,0.00000158,0.00000208,-0.00000133,-0.00000170,0.00000150,-0.000001
 63,0.00000010,0.00000261,-0.00000171,0.00000165,-0.00000711,0.00008345
 ,-0.00001010,-0.00002098,0.00000522,0.00001232,-0.00013521,-0.00010496
 ,0.00024561,0.00009928,-0.00017922,0.00018011,0.00002375,-0.00000360,0
 .00009524,-0.00001502,-0.00002012,-0.00001961,-0.00001141,0.00001755,-
 0.00001040,-0.00000548,-0.00000186,0.00000657,0.00000310,-0.00000041,-
 0.00000360,-0.00000361,-0.00000914,0.00001510,0.00002473,0.00000524,0.
 00000848,-0.00000925,-0.00000604,-0.00000668,0.00000039,-0.00000241,-0
 .00000160,0.00000342,-0.00000335,-0.00000835,0.00000175,-0.00000341,-0
 .00000116,-0.00001729,-0.00003525,0.00007087,0.00019302,-0.00218924,-0
 .00029352,-0.00004115,0.00004111,-0.00011839,-0.00002049,0.00000402,0.
 00000583,-0.00247045,0.00579182,-0.01837603,0.00043763,0.00327536,0.00
 035208,-0.00004023,-0.00004526,-0.00001037,-0.00002977,-0.00000508,0.0
 0001426,-0.00003870,0.00007937,0.00013656,0.00004568,-0.00002361,0.000
 00686,-0.05300998,0.00588907,-0.02206232,-0.00162105,0.00540166,-0.016
 75321,0.00408265,-0.00825329,0.02982441,0.05260480,-0.00000976,0.00001
 015,0.00001660,0.00001042,-0.00001916,0.00000158,-0.00000214,-0.000004
 71,0.00000048,-0.00000215,0.00000102,-0.00000455,-0.00000007,0.0000007
 4,0.00000215,0.00000066,-0.00000286,-0.00000548,-0.00000234,0.00000219
 ,-0.00000168,0.00000188,-0.00000049,-0.00000423,0.00000101,-0.00000001
 ,-0.00000053,0.,0.00000027,-0.00000044,-0.00000193,0.00000208,-0.00000
 108,0.00002609,0.00001555,-0.00007093,0.00004240,-0.00000428,-0.000032
 89,-0.00004911,0.00006937,-0.00056613,-0.00020234,0.00036065,-0.000291
 55,-0.00000170,-0.00003278,-0.00002966,0.00001690,0.00000127,-0.000007
 85,-0.00002665,-0.00008590,0.00002615,0.00000237,0.00000163,-0.0000080
 0,-0.00000635,0.00000871,-0.00000380,-0.00001413,0.00002444,-0.0000208
 7,0.00001769,-0.00001042,-0.00002555,-0.00000031,-0.00000695,0.0000042
 2,-0.00000268,0.00000496,-0.00000136,-0.00000061,-0.00000889,-0.000008
 27,0.00000209,0.00000484,-0.00000055,0.00002974,-0.00000484,-0.0000174
 2,-0.00230556,0.00327240,0.00022066,0.00000449,-0.00002178,0.00002133,
 0.00000085,-0.00000457,-0.00001034,0.00393556,-0.01110738,0.03441751,0
 .00331793,-0.00393341,-0.00050489,0.00002087,0.00000371,0.00000534,-0.
 00002572,-0.00000521,0.00000098,0.00002169,0.00002518,-0.00003065,-0.0
 0000008,-0.00000474,-0.00000135,0.00615270,-0.06878018,0.06480489,-0.0
 0156438,0.00706117,-0.02331141,0.00030385,-0.00094604,0.00175838,-0.00
 969119,0.07411424,-0.00001117,0.00000398,-0.00000339,-0.00004138,-0.00
 003279,0.00000567,-0.00000781,0.00000660,-0.00000694,0.00000378,0.0000
 0163,-0.00000147,-0.00000315,0.00000332,0.00000027,0.00000205,0.000001
 70,0.00000353,0.00000741,0.00000097,0.00000010,0.00000139,-0.00000174,
 0.00000208,-0.00000043,0.00000397,0.00000250,-0.00000153,0.00000255,0.
 00000015,0.00000116,0.00000071,-0.00000202,-0.00001727,0.00011172,-0.0
 0004322,-0.00000252,0.00000682,-0.00000672,0.00026866,-0.00052272,0.00
 061114,0.00012701,-0.00020373,-0.00021738,-0.00010968,0.00003392,-0.00
 003640,0.00000880,0.00001864,0.00003176,0.00002858,0.00004300,-0.00000
 672,0.00000971,0.00000227,0.00000048,0.00000244,-0.00000643,0.00000199
 ,0.00000329,-0.00000755,-0.00000589,-0.00002577,-0.00000708,-0.0000080
 1,0.00000652,0.00001587,0.,0.00000468,0.00000481,-0.00000041,0.0000050
 4,0.00000543,0.00001279,0.00000197,0.00000525,0.00000319,-0.00004624,-
 0.00001871,0.00008906,0.00041548,-0.00114082,0.00137734,0.00000286,0.0
 0006716,-0.00010395,-0.00001452,-0.00000238,-0.00000078,0.00048876,-0.
 00058068,-0.00348504,-0.00011882,0.00036306,0.00072517,0.00001377,-0.0
 0004038,-0.00000334,-0.00002465,-0.00001236,0.00001142,0.00002295,0.00
 005224,0.00005261,0.00002399,-0.00001088,0.00000616,-0.02470405,0.0699
 1664,-0.29884258,-0.00002901,0.00535011,-0.01359103,-0.00298954,0.0028
 8467,-0.01135968,0.02669723,-0.07631881,0.32478758\\-0.00000193,0.0000
 0519,-0.00000346,-0.00000398,-0.00000702,0.00000247,0.00000057,0.00000
 027,-0.00000021,-0.00000158,0.00000311,-0.00000148,0.00000161,0.000002
 48,0.00000302,0.00000265,-0.00000099,-0.00000124,0.00000198,0.00000072
 ,0.00000012,-0.00000193,0.00000063,-0.00000140,0.00000091,-0.00000063,
 0.00000023,0.00000136,0.00000088,-0.00000103,0.00000194,0.00000249,-0.
 00000030,0.00000851,0.00001357,0.00000451,-0.00000064,-0.00000114,-0.0
 0000225,-0.00000478,0.00001034,-0.00000547,0.00000172,-0.00000024,0.00
 000245,0.00000057,-0.00000816,0.00000856,0.00000209,0.00000327,-0.0000
 0038,-0.00000083,-0.00000128,-0.00000151,-0.00000089,-0.00000166,-0.00
 000100,0.00000204,0.00000014,0.00000137,0.00000092,0.00000176,0.000002
 25,-0.00000092,-0.00000101,-0.00000018,0.00000090,-0.00000297,0.000005
 43,0.00000160,-0.00000068,0.00000318,-0.00000092,-0.00000245,0.0000016
 3,0.00000005,-0.00000196,0.00000293,-0.00000621,-0.00000820,-0.0000064
 0,0.00000196,-0.00000468,0.00000605,0.00000391,0.00001153,0.00000125,-
 0.00000217,-0.00000180,-0.00000173,-0.00000011,-0.00000280,-0.00000522
 ,0.00000160,-0.00000125,0.00000083,-0.00000274,0.00000618,0.00000010,-
 0.00000189,-0.00000395,-0.00000353,-0.00000282,-0.00000397,-0.00000172
 ,-0.00000136,-0.00000276,-0.00000484,0.00000091,-0.00000327,-0.0000016
 8,-0.00000082,0.00000034,-0.00000095,-0.00000004,0.,0.00000040,-0.0000
 0123,0.,-0.00000075\\\@
 The archive entry for this job was punched.


 FOR THE NATURE OF THE CHEMICAL BOND
 IS THE PROBLEM AT THE HEART OF ALL CHEMISTRY.

                     -- BRYCE CRAWFORD, JR., 1953
 Job cpu time:       0 days  1 hours 19 minutes 27.3 seconds.
 Elapsed time:       0 days  0 hours  9 minutes 56.5 seconds.
 File lengths (MBytes):  RWF=    446 Int=      0 D2E=      0 Chk=     17 Scr=      1
 Normal termination of Gaussian 16 at Wed Sep 29 03:10:10 2021.
