 Entering Gaussian System, Link 0=/home/rong/g16/g16
 Input=/home/rong/g16/102121/CH2NMeCH2CH3.gjf
 Output=/home/rong/g16/102121/CH2NMeCH2CH3.log
 Initial command:
 /home/rong/g16/l1.exe "/tmp/Gau-106626.inp" -scrdir="/tmp/"
 Default is to use a total of   8 processors:
                                8 via shared-memory
                                1 via Linda
 Entering Link 1 = /home/rong/g16/l1.exe PID=    106628.
  
 Copyright (c) 1988-2019, Gaussian, Inc.  All Rights Reserved.
  
 This is part of the Gaussian(R) 16 program.  It is based on
 the Gaussian(R) 09 system (copyright 2009, Gaussian, Inc.),
 the Gaussian(R) 03 system (copyright 2003, Gaussian, Inc.),
 the Gaussian(R) 98 system (copyright 1998, Gaussian, Inc.),
 the Gaussian(R) 94 system (copyright 1995, Gaussian, Inc.),
 the Gaussian 92(TM) system (copyright 1992, Gaussian, Inc.),
 the Gaussian 90(TM) system (copyright 1990, Gaussian, Inc.),
 the Gaussian 88(TM) system (copyright 1988, Gaussian, Inc.),
 the Gaussian 86(TM) system (copyright 1986, Carnegie Mellon
 University), and the Gaussian 82(TM) system (copyright 1983,
 Carnegie Mellon University). Gaussian is a federally registered
 trademark of Gaussian, Inc.
  
 This software contains proprietary and confidential information,
 including trade secrets, belonging to Gaussian, Inc.
  
 This software is provided under written license and may be
 used, copied, transmitted, or stored only in accord with that
 written license.
  
 The following legend is applicable only to US Government
 contracts under FAR:
  
                    RESTRICTED RIGHTS LEGEND
  
 Use, reproduction and disclosure by the US Government is
 subject to restrictions as set forth in subparagraphs (a)
 and (c) of the Commercial Computer Software - Restricted
 Rights clause in FAR 52.227-19.
  
 Gaussian, Inc.
 340 Quinnipiac St., Bldg. 40, Wallingford CT 06492
  
  
 ---------------------------------------------------------------
 Warning -- This program may not be used in any manner that
 competes with the business of Gaussian, Inc. or will provide
 assistance to any competitor of Gaussian, Inc.  The licensee
 of this program is prohibited from giving any competitor of
 Gaussian, Inc. access to this program.  By using this program,
 the user acknowledges that Gaussian, Inc. is engaged in the
 business of creating and licensing software in the field of
 computational chemistry and represents and warrants to the
 licensee that it is not a competitor of Gaussian, Inc. and that
 it will not use this program in any manner prohibited above.
 ---------------------------------------------------------------
  

 Cite this work as:
 Gaussian 16, Revision C.01,
 M. J. Frisch, G. W. Trucks, H. B. Schlegel, G. E. Scuseria, 
 M. A. Robb, J. R. Cheeseman, G. Scalmani, V. Barone, 
 G. A. Petersson, H. Nakatsuji, X. Li, M. Caricato, A. V. Marenich, 
 J. Bloino, B. G. Janesko, R. Gomperts, B. Mennucci, H. P. Hratchian, 
 J. V. Ortiz, A. F. Izmaylov, J. L. Sonnenberg, D. Williams-Young, 
 F. Ding, F. Lipparini, F. Egidi, J. Goings, B. Peng, A. Petrone, 
 T. Henderson, D. Ranasinghe, V. G. Zakrzewski, J. Gao, N. Rega, 
 G. Zheng, W. Liang, M. Hada, M. Ehara, K. Toyota, R. Fukuda, 
 J. Hasegawa, M. Ishida, T. Nakajima, Y. Honda, O. Kitao, H. Nakai, 
 T. Vreven, K. Throssell, J. A. Montgomery, Jr., J. E. Peralta, 
 F. Ogliaro, M. J. Bearpark, J. J. Heyd, E. N. Brothers, K. N. Kudin, 
 V. N. Staroverov, T. A. Keith, R. Kobayashi, J. Normand, 
 K. Raghavachari, A. P. Rendell, J. C. Burant, S. S. Iyengar, 
 J. Tomasi, M. Cossi, J. M. Millam, M. Klene, C. Adamo, R. Cammi, 
 J. W. Ochterski, R. L. Martin, K. Morokuma, O. Farkas, 
 J. B. Foresman, and D. J. Fox, Gaussian, Inc., Wallingford CT, 2019.
 
 ******************************************
 Gaussian 16:  ES64L-G16RevC.01  3-Jul-2019
                24-Oct-2021 
 ******************************************
 %mem=15GB
 %chk=CH2NMeCH2CH3.chk
 %nprocshared=8
 Will use up to    8 processors via shared memory.
 ----------------------------------------------------
 # opt freq b3lyp/6-31g(d) scrf=(smd,solvent=toluene)
 ----------------------------------------------------
 1/18=20,19=15,26=3,38=1/1,3;
 2/9=110,12=2,17=6,18=5,40=1/2;
 3/5=1,6=6,7=1,11=2,25=1,30=1,70=32201,71=1,72=13,74=-5/1,2,3;
 4//1;
 5/5=2,38=5,53=13/2;
 6/7=2,8=2,9=2,10=2,28=1/1;
 7//1,2,3,16;
 1/18=20,19=15,26=3/3(2);
 2/9=110/2;
 99//99;
 2/9=110/2;
 3/5=1,6=6,7=1,11=2,25=1,30=1,70=32205,71=1,72=13,74=-5/1,2,3;
 4/5=5,16=3,69=1/1;
 5/5=2,38=5,53=13/2;
 7//1,2,3,16;
 1/18=20,19=15,26=3/3(-5);
 2/9=110/2;
 6/7=2,8=2,9=2,10=2,19=2,28=1/1;
 99/9=1/99;
 ------------
 CH2NMeCH2CH3
 ------------
 Symbolic Z-matrix:
 Charge =  0 Multiplicity = 1
 C                    -2.35294   1.54412   0. 
 H                    -1.99627   2.04852  -0.87365 
 H                    -3.42294   1.54413   0. 
 C                    -1.8396    2.27007   1.2574 
 H                    -2.19609   3.27894   1.25731 
 H                    -2.19643   1.76579   2.13106 
 N                    -1.86296   0.15818   0. 
 N                    -0.3696    2.26982   1.25754 
 C                    -1.51535  -0.23865  -1.37208 
 H                    -1.24477  -1.27377  -1.38627 
 H                    -2.35754  -0.08132  -2.01306 
 C                    -2.91207  -0.73244   0.51677 
 H                    -3.80243  -0.60915  -0.06372 
 H                    -2.58167  -1.74807   0.45172 
 H                    -3.11576  -0.48838   1.53846 
 C                    -0.3285    0.60901  -1.86652 
 H                     0.427     0.64076  -1.10948 
 H                     0.07575   0.17227  -2.75576 
 H                    -0.66364   1.60295  -2.07788 
 C                     0.12066   3.59678   0.85787 
 H                     1.16411   3.53731   0.62856 
 H                    -0.41589   3.92999  -0.00583 
 C                    -0.09527   4.59293   2.01228 
 H                     0.64168   5.3668    1.95814 
 H                    -1.07147   5.0239    1.93359 
 H                    -0.00605   4.08022   2.94719 
 C                     0.12022   1.95238   2.60669 
 H                     1.10611   2.34929   2.73076 
 H                    -0.53313   2.3862    3.33458 
 H                     0.14423   0.89059   2.73676 
 

 GradGradGradGradGradGradGradGradGradGradGradGradGradGradGradGradGradGrad
 Berny optimization.
 Initialization pass.
                           ----------------------------
                           !    Initial Parameters    !
                           ! (Angstroms and Degrees)  !
 --------------------------                            --------------------------
 ! Name  Definition              Value          Derivative Info.                !
 --------------------------------------------------------------------------------
 ! R1    R(1,2)                  1.07           estimate D2E/DX2                !
 ! R2    R(1,3)                  1.07           estimate D2E/DX2                !
 ! R3    R(1,4)                  1.54           estimate D2E/DX2                !
 ! R4    R(1,7)                  1.47           estimate D2E/DX2                !
 ! R5    R(4,5)                  1.07           estimate D2E/DX2                !
 ! R6    R(4,6)                  1.07           estimate D2E/DX2                !
 ! R7    R(4,8)                  1.47           estimate D2E/DX2                !
 ! R8    R(7,9)                  1.47           estimate D2E/DX2                !
 ! R9    R(7,12)                 1.47           estimate D2E/DX2                !
 ! R10   R(8,20)                 1.47           estimate D2E/DX2                !
 ! R11   R(8,27)                 1.47           estimate D2E/DX2                !
 ! R12   R(9,10)                 1.07           estimate D2E/DX2                !
 ! R13   R(9,11)                 1.07           estimate D2E/DX2                !
 ! R14   R(9,16)                 1.54           estimate D2E/DX2                !
 ! R15   R(12,13)                1.07           estimate D2E/DX2                !
 ! R16   R(12,14)                1.07           estimate D2E/DX2                !
 ! R17   R(12,15)                1.07           estimate D2E/DX2                !
 ! R18   R(16,17)                1.07           estimate D2E/DX2                !
 ! R19   R(16,18)                1.07           estimate D2E/DX2                !
 ! R20   R(16,19)                1.07           estimate D2E/DX2                !
 ! R21   R(20,21)                1.07           estimate D2E/DX2                !
 ! R22   R(20,22)                1.07           estimate D2E/DX2                !
 ! R23   R(20,23)                1.54           estimate D2E/DX2                !
 ! R24   R(23,24)                1.07           estimate D2E/DX2                !
 ! R25   R(23,25)                1.07           estimate D2E/DX2                !
 ! R26   R(23,26)                1.07           estimate D2E/DX2                !
 ! R27   R(27,28)                1.07           estimate D2E/DX2                !
 ! R28   R(27,29)                1.07           estimate D2E/DX2                !
 ! R29   R(27,30)                1.07           estimate D2E/DX2                !
 ! A1    A(2,1,3)              109.4712         estimate D2E/DX2                !
 ! A2    A(2,1,4)              109.4713         estimate D2E/DX2                !
 ! A3    A(2,1,7)              109.4712         estimate D2E/DX2                !
 ! A4    A(3,1,4)              109.4712         estimate D2E/DX2                !
 ! A5    A(3,1,7)              109.4712         estimate D2E/DX2                !
 ! A6    A(4,1,7)              109.4712         estimate D2E/DX2                !
 ! A7    A(1,4,5)              109.4712         estimate D2E/DX2                !
 ! A8    A(1,4,6)              109.4712         estimate D2E/DX2                !
 ! A9    A(1,4,8)              109.4712         estimate D2E/DX2                !
 ! A10   A(5,4,6)              109.4712         estimate D2E/DX2                !
 ! A11   A(5,4,8)              109.4713         estimate D2E/DX2                !
 ! A12   A(6,4,8)              109.4712         estimate D2E/DX2                !
 ! A13   A(1,7,9)              109.4712         estimate D2E/DX2                !
 ! A14   A(1,7,12)             109.4712         estimate D2E/DX2                !
 ! A15   A(9,7,12)             109.4713         estimate D2E/DX2                !
 ! A16   A(4,8,20)             109.4712         estimate D2E/DX2                !
 ! A17   A(4,8,27)             109.4712         estimate D2E/DX2                !
 ! A18   A(20,8,27)            109.4713         estimate D2E/DX2                !
 ! A19   A(7,9,10)             109.4712         estimate D2E/DX2                !
 ! A20   A(7,9,11)             109.4712         estimate D2E/DX2                !
 ! A21   A(7,9,16)             109.4712         estimate D2E/DX2                !
 ! A22   A(10,9,11)            109.4713         estimate D2E/DX2                !
 ! A23   A(10,9,16)            109.4712         estimate D2E/DX2                !
 ! A24   A(11,9,16)            109.4712         estimate D2E/DX2                !
 ! A25   A(7,12,13)            109.4712         estimate D2E/DX2                !
 ! A26   A(7,12,14)            109.4712         estimate D2E/DX2                !
 ! A27   A(7,12,15)            109.4712         estimate D2E/DX2                !
 ! A28   A(13,12,14)           109.4713         estimate D2E/DX2                !
 ! A29   A(13,12,15)           109.4712         estimate D2E/DX2                !
 ! A30   A(14,12,15)           109.4712         estimate D2E/DX2                !
 ! A31   A(9,16,17)            109.4712         estimate D2E/DX2                !
 ! A32   A(9,16,18)            109.4712         estimate D2E/DX2                !
 ! A33   A(9,16,19)            109.4712         estimate D2E/DX2                !
 ! A34   A(17,16,18)           109.4713         estimate D2E/DX2                !
 ! A35   A(17,16,19)           109.4712         estimate D2E/DX2                !
 ! A36   A(18,16,19)           109.4712         estimate D2E/DX2                !
 ! A37   A(8,20,21)            109.4712         estimate D2E/DX2                !
 ! A38   A(8,20,22)            109.4712         estimate D2E/DX2                !
 ! A39   A(8,20,23)            109.4712         estimate D2E/DX2                !
 ! A40   A(21,20,22)           109.4712         estimate D2E/DX2                !
 ! A41   A(21,20,23)           109.4713         estimate D2E/DX2                !
 ! A42   A(22,20,23)           109.4712         estimate D2E/DX2                !
 ! A43   A(20,23,24)           109.4712         estimate D2E/DX2                !
 ! A44   A(20,23,25)           109.4712         estimate D2E/DX2                !
 ! A45   A(20,23,26)           109.4712         estimate D2E/DX2                !
 ! A46   A(24,23,25)           109.4713         estimate D2E/DX2                !
 ! A47   A(24,23,26)           109.4712         estimate D2E/DX2                !
 ! A48   A(25,23,26)           109.4712         estimate D2E/DX2                !
 ! A49   A(8,27,28)            109.4712         estimate D2E/DX2                !
 ! A50   A(8,27,29)            109.4712         estimate D2E/DX2                !
 ! A51   A(8,27,30)            109.4712         estimate D2E/DX2                !
 ! A52   A(28,27,29)           109.4713         estimate D2E/DX2                !
 ! A53   A(28,27,30)           109.4712         estimate D2E/DX2                !
 ! A54   A(29,27,30)           109.4712         estimate D2E/DX2                !
 ! D1    D(2,1,4,5)             59.9889         estimate D2E/DX2                !
 ! D2    D(2,1,4,6)            179.9889         estimate D2E/DX2                !
 ! D3    D(2,1,4,8)            -60.0111         estimate D2E/DX2                !
 ! D4    D(3,1,4,5)            -60.0111         estimate D2E/DX2                !
 ! D5    D(3,1,4,6)             59.9889         estimate D2E/DX2                !
 ! D6    D(3,1,4,8)            179.9889         estimate D2E/DX2                !
 ! D7    D(7,1,4,5)            179.9889         estimate D2E/DX2                !
 ! D8    D(7,1,4,6)            -60.0111         estimate D2E/DX2                !
 ! D9    D(7,1,4,8)             59.9889         estimate D2E/DX2                !
 ! D10   D(2,1,7,9)            -21.8926         estimate D2E/DX2                !
 ! D11   D(2,1,7,12)          -141.8926         estimate D2E/DX2                !
 ! D12   D(3,1,7,9)             98.1074         estimate D2E/DX2                !
 ! D13   D(3,1,7,12)           -21.8926         estimate D2E/DX2                !
 ! D14   D(4,1,7,9)           -141.8926         estimate D2E/DX2                !
 ! D15   D(4,1,7,12)            98.1073         estimate D2E/DX2                !
 ! D16   D(1,4,8,20)           103.241          estimate D2E/DX2                !
 ! D17   D(1,4,8,27)          -136.759          estimate D2E/DX2                !
 ! D18   D(5,4,8,20)           -16.759          estimate D2E/DX2                !
 ! D19   D(5,4,8,27)           103.241          estimate D2E/DX2                !
 ! D20   D(6,4,8,20)          -136.759          estimate D2E/DX2                !
 ! D21   D(6,4,8,27)           -16.759          estimate D2E/DX2                !
 ! D22   D(1,7,9,10)          -174.8232         estimate D2E/DX2                !
 ! D23   D(1,7,9,11)           -54.8232         estimate D2E/DX2                !
 ! D24   D(1,7,9,16)            65.1768         estimate D2E/DX2                !
 ! D25   D(12,7,9,10)          -54.8233         estimate D2E/DX2                !
 ! D26   D(12,7,9,11)           65.1768         estimate D2E/DX2                !
 ! D27   D(12,7,9,16)         -174.8232         estimate D2E/DX2                !
 ! D28   D(1,7,12,13)           55.9962         estimate D2E/DX2                !
 ! D29   D(1,7,12,14)          175.9963         estimate D2E/DX2                !
 ! D30   D(1,7,12,15)          -64.0037         estimate D2E/DX2                !
 ! D31   D(9,7,12,13)          -64.0037         estimate D2E/DX2                !
 ! D32   D(9,7,12,14)           55.9963         estimate D2E/DX2                !
 ! D33   D(9,7,12,15)          175.9963         estimate D2E/DX2                !
 ! D34   D(4,8,20,21)         -166.4269         estimate D2E/DX2                !
 ! D35   D(4,8,20,22)          -46.4269         estimate D2E/DX2                !
 ! D36   D(4,8,20,23)           73.5731         estimate D2E/DX2                !
 ! D37   D(27,8,20,21)          73.5731         estimate D2E/DX2                !
 ! D38   D(27,8,20,22)        -166.4269         estimate D2E/DX2                !
 ! D39   D(27,8,20,23)         -46.4269         estimate D2E/DX2                !
 ! D40   D(4,8,27,28)         -155.7137         estimate D2E/DX2                !
 ! D41   D(4,8,27,29)          -35.7137         estimate D2E/DX2                !
 ! D42   D(4,8,27,30)           84.2863         estimate D2E/DX2                !
 ! D43   D(20,8,27,28)         -35.7137         estimate D2E/DX2                !
 ! D44   D(20,8,27,29)          84.2863         estimate D2E/DX2                !
 ! D45   D(20,8,27,30)        -155.7137         estimate D2E/DX2                !
 ! D46   D(7,9,16,17)           46.4402         estimate D2E/DX2                !
 ! D47   D(7,9,16,18)          166.4403         estimate D2E/DX2                !
 ! D48   D(7,9,16,19)          -73.5598         estimate D2E/DX2                !
 ! D49   D(10,9,16,17)         -73.5597         estimate D2E/DX2                !
 ! D50   D(10,9,16,18)          46.4403         estimate D2E/DX2                !
 ! D51   D(10,9,16,19)         166.4403         estimate D2E/DX2                !
 ! D52   D(11,9,16,17)         166.4402         estimate D2E/DX2                !
 ! D53   D(11,9,16,18)         -73.5598         estimate D2E/DX2                !
 ! D54   D(11,9,16,19)          46.4402         estimate D2E/DX2                !
 ! D55   D(8,20,23,24)         152.0508         estimate D2E/DX2                !
 ! D56   D(8,20,23,25)         -87.9492         estimate D2E/DX2                !
 ! D57   D(8,20,23,26)          32.0508         estimate D2E/DX2                !
 ! D58   D(21,20,23,24)         32.0508         estimate D2E/DX2                !
 ! D59   D(21,20,23,25)        152.0509         estimate D2E/DX2                !
 ! D60   D(21,20,23,26)        -87.9491         estimate D2E/DX2                !
 ! D61   D(22,20,23,24)        -87.9492         estimate D2E/DX2                !
 ! D62   D(22,20,23,25)         32.0508         estimate D2E/DX2                !
 ! D63   D(22,20,23,26)        152.0508         estimate D2E/DX2                !
 --------------------------------------------------------------------------------
 Trust Radius=3.00D-01 FncErr=1.00D-07 GrdErr=1.00D-06 EigMax=2.50D+02 EigMin=1.00D-04
 Number of steps in this run=    156 maximum allowed number of steps=    180.
 GradGradGradGradGradGradGradGradGradGradGradGradGradGradGradGradGradGrad

                          Input orientation:                          
 ---------------------------------------------------------------------
 Center     Atomic      Atomic             Coordinates (Angstroms)
 Number     Number       Type             X           Y           Z
 ---------------------------------------------------------------------
      1          6           0       -2.352941    1.544118    0.000000
      2          1           0       -1.996268    2.048516   -0.873652
      3          1           0       -3.422941    1.544131    0.000000
      4          6           0       -1.839599    2.270074    1.257405
      5          1           0       -2.196094    3.278940    1.257307
      6          1           0       -2.196431    1.765788    2.131056
      7          7           0       -1.862958    0.158182    0.000000
      8          7           0       -0.369599    2.269823    1.257539
      9          6           0       -1.515352   -0.238646   -1.372078
     10          1           0       -1.244769   -1.273771   -1.386273
     11          1           0       -2.357545   -0.081323   -2.013062
     12          6           0       -2.912071   -0.732442    0.516770
     13          1           0       -3.802428   -0.609148   -0.063716
     14          1           0       -2.581670   -1.748071    0.451719
     15          1           0       -3.115755   -0.488382    1.538458
     16          6           0       -0.328505    0.609007   -1.866524
     17          1           0        0.426997    0.640761   -1.109484
     18          1           0        0.075754    0.172267   -2.755755
     19          1           0       -0.663637    1.602947   -2.077876
     20          6           0        0.120663    3.596777    0.857869
     21          1           0        1.164111    3.537310    0.628563
     22          1           0       -0.415894    3.929991   -0.005829
     23          6           0       -0.095271    4.592928    2.012276
     24          1           0        0.641675    5.366800    1.958141
     25          1           0       -1.071475    5.023898    1.933586
     26          1           0       -0.006048    4.080215    2.947191
     27          6           0        0.120224    1.952383    2.606689
     28          1           0        1.106108    2.349295    2.730757
     29          1           0       -0.533129    2.386203    3.334583
     30          1           0        0.144229    0.890590    2.736761
 ---------------------------------------------------------------------
                    Distance matrix (angstroms):
                    1          2          3          4          5
     1  C    0.000000
     2  H    1.070000   0.000000
     3  H    1.070000   1.747303   0.000000
     4  C    1.540000   2.148263   2.148263   0.000000
     5  H    2.148263   2.468777   2.468915   1.070000   0.000000
     6  H    2.148263   3.024611   2.468777   1.070000   1.747303
     7  N    1.470000   2.086720   2.086720   2.457987   3.380966
     8  N    2.457987   2.690168   3.380966   1.470000   2.086720
     9  C    2.400500   2.389732   2.949540   3.648697   4.444152
    10  H    3.330209   3.444578   3.821878   4.461131   5.349833
    11  H    2.587373   2.442333   2.798140   4.061193   4.691775
    12  C    2.400500   3.241248   2.389732   3.273200   4.141522
    13  H    2.596464   3.313818   2.187391   3.726658   4.409381
    14  H    3.330897   4.063665   3.427883   4.164768   5.105731
    15  H    2.660788   3.675238   2.567553   3.052318   3.888128
    16  C    2.908038   2.416488   3.732815   3.847269   4.513840
    17  H    3.126509   2.812402   4.107195   3.659819   4.409342
    18  H    3.921061   3.369852   4.660157   4.916790   5.560340
    19  H    2.678577   1.850566   3.454676   3.598894   4.034950
    20  C    3.326871   3.142718   4.184069   2.400500   2.372327
    21  H    4.091156   3.802782   5.040724   3.320181   3.428272
    22  H    3.073204   2.605887   3.838580   2.525475   2.277827
    23  C    4.294365   4.291433   4.941437   3.001359   2.590366
    24  H    5.235928   5.097922   5.913393   4.029574   3.592111
    25  H    4.182078   4.193891   4.623519   2.937819   2.183345
    26  H    4.541545   4.763152   5.176178   3.081217   2.879939
    27  C    3.616359   4.074500   4.417637   2.400500   2.990972
    28  H    4.479996   4.765183   5.349543   3.294576   3.733609
    29  H    3.891050   4.468114   4.492165   2.456627   2.806689
    30  H    3.762023   4.354032   4.543311   2.833204   3.656516
                    6          7          8          9         10
     6  H    0.000000
     7  N    2.690168   0.000000
     8  N    2.086720   2.875857   0.000000
     9  C    4.093113   1.470000   3.810519   0.000000
    10  H    4.745122   2.086720   4.506963   1.070000   0.000000
    11  H    4.539988   2.086720   4.491842   1.070000   1.747303
    12  C    3.059283   1.470000   4.003311   2.400500   2.587374
    13  H    3.610620   2.086720   4.671028   2.660789   2.955080
    14  H    3.913539   2.086720   4.656831   2.596465   2.321740
    15  H    2.505516   2.086720   3.902305   3.330898   3.559702
    16  C    4.561572   2.457987   3.538328   1.540000   2.148263
    17  H    4.318467   2.589928   2.981812   2.148263   2.556725
    18  H    5.619881   3.369420   4.550232   2.148263   2.389621
    19  H    4.482308   2.800586   3.414114   2.148263   3.015217
    20  C    3.215969   4.061358   1.470000   4.728602   5.533788
    21  H    4.085219   4.580037   2.086720   5.043801   5.745325
    22  H    3.524254   4.039873   2.086720   4.522497   5.447182
    23  C    3.524443   5.180824   2.457987   6.067502   6.876745
    24  H    4.588250   6.102229   3.332384   6.867616   7.670785
    25  H    3.452506   5.295317   2.921403   6.230474   7.121244
    26  H    3.289442   5.245607   2.502921   6.291792   6.998464
    27  C    2.372327   3.734567   1.470000   4.827660   5.311781
    28  H    3.406888   4.590573   2.086720   5.513869   5.966838
    29  H    2.144753   4.225159   2.086720   5.477888   6.015673
    30  H    2.571292   3.472043   2.086720   4.572957   4.859339
                   11         12         13         14         15
    11  H    0.000000
    12  C    2.670488   0.000000
    13  H    2.483191   1.070000   0.000000
    14  H    2.983861   1.070000   1.747303   0.000000
    15  H    3.654296   1.070000   1.747303   1.747303   0.000000
    16  C    2.148263   3.762232   4.099044   4.000852   4.535078
    17  H    3.015217   3.959768   4.532542   4.146800   4.564828
    18  H    2.556725   4.522722   4.785183   4.586664   5.390961
    19  H    2.389621   4.152310   4.336152   4.615953   4.844008
    20  C    5.283198   5.296788   5.824927   6.002913   5.256057
    21  H    5.698662   5.904112   6.506833   6.480540   5.945701
    22  H    4.887702   5.314348   5.663546   6.094287   5.403341
    23  C    6.570377   6.207290   6.716721   6.987545   5.930222
    24  H    7.378876   7.204680   7.716859   7.954914   6.969761
    25  H    6.579763   6.207302   6.571037   7.094800   5.892405
    26  H    6.888545   6.124833   6.743011   6.843254   5.703235
    27  C    5.622935   4.557505   5.392560   5.063347   4.191659
    28  H    6.356777   5.526717   6.376142   5.965076   5.224760
    29  H    6.165589   4.829636   5.586491   5.440556   4.261368
    30  H    5.455667   4.111394   5.066358   4.428823   3.736976
                   16         17         18         19         20
    16  C    0.000000
    17  H    1.070000   0.000000
    18  H    1.070000   1.747303   0.000000
    19  H    1.070000   1.747303   1.747303   0.000000
    20  C    4.068272   3.564035   4.978711   3.634430   0.000000
    21  H    4.126538   3.457476   4.895063   3.795686   1.070000
    22  H    3.807723   3.570371   4.682340   3.125682   1.070000
    23  C    5.565169   5.063375   6.504277   5.098271   1.540000
    24  H    6.181092   5.638426   7.037347   5.670966   2.148263
    25  H    5.872316   5.542343   6.844295   5.287822   2.148263
    26  H    5.943493   5.336102   6.913924   5.640973   2.148263
    27  C    4.692083   3.952771   5.650363   4.762530   2.400500
    28  H    5.120713   4.257667   5.991903   5.178029   2.456628
    29  H    5.500164   4.870127   6.508800   5.470396   2.833204
    30  H    4.636054   3.864708   5.539712   4.933642   3.294577
                   21         22         23         24         25
    21  H    0.000000
    22  H    1.747303   0.000000
    23  C    2.148263   2.148263   0.000000
    24  H    2.321153   2.653309   1.070000   0.000000
    25  H    2.985108   2.321152   1.070000   1.747303   0.000000
    26  H    2.653310   2.985108   1.070000   1.747303   1.747303
    27  C    2.741291   3.320182   2.715187   3.514366   3.362650
    28  H    2.415360   3.507705   2.644507   3.149281   3.539894
    29  H    3.395322   3.681763   2.609568   3.486935   3.034805
    30  H    3.534089   4.132009   3.780151   4.570575   4.382609
                   26         27         28         29         30
    26  H    0.000000
    27  C    2.158600   0.000000
    28  H    2.068773   1.070000   0.000000
    29  H    1.815919   1.070000   1.747303   0.000000
    30  H    3.200090   1.070000   1.747303   1.747303   0.000000
 Stoichiometry    C8H20N2
 Framework group  C1[X(C8H20N2)]
 Deg. of freedom    84
 Full point group                 C1      NOp   1
 Largest Abelian subgroup         C1      NOp   1
 Largest concise Abelian subgroup C1      NOp   1
                         Standard orientation:                         
 ---------------------------------------------------------------------
 Center     Atomic      Atomic             Coordinates (Angstroms)
 Number     Number       Type             X           Y           Z
 ---------------------------------------------------------------------
      1          6           0        0.810161   -0.321393   -1.048063
      2          1           0        0.751878    0.690603   -1.390654
      3          1           0        1.209919   -0.938607   -1.825328
      4          6           0       -0.598176   -0.817795   -0.671539
      5          1           0       -1.235274   -0.767734   -1.529735
      6          1           0       -0.539919   -1.829853   -0.329131
      7          7           0        1.685356   -0.389918    0.131020
      8          7           0       -1.147269    0.029991    0.396477
      9          6           0        2.581112    0.775557    0.144762
     10          1           0        3.277885    0.680385    0.951205
     11          1           0        3.113222    0.827378   -0.782100
     12          6           0        2.485211   -1.622058    0.076603
     13          1           0        3.029438   -1.653625   -0.844115
     14          1           0        3.171533   -1.638293    0.897334
     15          1           0        1.836870   -2.471122    0.136981
     16          6           0        1.750851    2.058924    0.332472
     17          1           0        1.045635    1.914880    1.124193
     18          1           0        2.401620    2.872004    0.578037
     19          1           0        1.228429    2.281579   -0.574390
     20          6           0       -2.133170    0.959385   -0.173719
     21          1           0       -2.356843    1.724290    0.540278
     22          1           0       -1.732261    1.405027   -1.060046
     23          6           0       -3.421107    0.190754   -0.523041
     24          1           0       -4.258836    0.853977   -0.466066
     25          1           0       -3.344016   -0.202050   -1.515342
     26          1           0       -3.555333   -0.613712    0.169575
     27          6           0       -1.798431   -0.815599    1.407351
     28          1           0       -2.535183   -0.242681    1.930668
     29          1           0       -2.268935   -1.647816    0.926788
     30          1           0       -1.065149   -1.171796    2.100403
 ---------------------------------------------------------------------
 Rotational constants (GHZ):           2.0870284           0.7319850           0.6473395
 Standard basis: 6-31G(d) (6D, 7F)
 There are   190 symmetry adapted cartesian basis functions of A   symmetry.
 There are   190 symmetry adapted basis functions of A   symmetry.
   190 basis functions,   360 primitive gaussians,   190 cartesian basis functions
    41 alpha electrons       41 beta electrons
       nuclear repulsion energy       608.4076905332 Hartrees.
 NAtoms=   30 NActive=   30 NUniq=   30 SFac= 1.00D+00 NAtFMM=   60 NAOKFM=F Big=F
 Integral buffers will be    131072 words long.
 Raffenetti 2 integral format.
 Two-electron integral symmetry is turned on.
 ------------------------------------------------------------------------------
 Polarizable Continuum Model (PCM)
 =================================
 Model                : PCM.
 Atomic radii         : SMD-Coulomb.
 Polarization charges : Total charges.
 Charge compensation  : None.
 Solution method      : On-the-fly selection.
 Cavity type          : VdW (van der Waals Surface) (Alpha=1.000).
 Cavity algorithm     : GePol (No added spheres)
                        Default sphere list used, NSphG=   30.
                        Lebedev-Laikov grids with approx.  5.0 points / Ang**2.
                        Smoothing algorithm: York/Karplus (Gamma=1.0000).
                        Polarization charges: spherical gaussians, with
                                              point-specific exponents (IZeta= 3).
                        Self-potential: point-specific (ISelfS= 7).
                        Self-field    : sphere-specific E.n sum rule (ISelfD= 2).
 1st derivatives      : Analytical E(r).r(x)/FMM algorithm (CHGder, D1EAlg=3).
                        Cavity 1st derivative terms included.
 Solvent              : Toluene, Eps=   2.374100 Eps(inf)=   2.238315
 ------------------------------------------------------------------------------
 ------------------------------------------------------------------------------
 Atomic radii for non-electrostatic terms: SMD-CDS.
 ------------------------------------------------------------------------------
 Nuclear repulsion after PCM non-electrostatic terms =      608.4023185888 Hartrees.
 One-electron integrals computed using PRISM.
 NBasis=   190 RedAO= T EigKep=  3.53D-03  NBF=   190
 NBsUse=   190 1.00D-06 EigRej= -1.00D+00 NBFU=   190
 ExpMin= 1.61D-01 ExpMax= 4.17D+03 ExpMxC= 6.27D+02 IAcc=3 IRadAn=         5 AccDes= 0.00D+00
 Harris functional with IExCor=  402 and IRadAn=       5 diagonalized for initial guess.
 HarFok:  IExCor=  402 AccDes= 0.00D+00 IRadAn=         5 IDoV= 1 UseB2=F ITyADJ=14
 ICtDFT=  3500011 ScaDFX=  1.000000  1.000000  1.000000  1.000000
 FoFCou: FMM=F IPFlag=           0 FMFlag=      100000 FMFlg1=           0
         NFxFlg=           0 DoJE=T BraDBF=F KetDBF=T FulRan=T
         wScrn=  0.000000 ICntrl=       500 IOpCl=  0 I1Cent=   200000004 NGrid=           0
         NMat0=    1 NMatS0=      1 NMatT0=    0 NMatD0=    1 NMtDS0=    0 NMtDT0=    0
 Petite list used in FoFCou.
 Requested convergence on RMS density matrix=1.00D-08 within 128 cycles.
 Requested convergence on MAX density matrix=1.00D-06.
 Requested convergence on             energy=1.00D-06.
 No special actions if energy rises.
 Inv3:  Mode=1 IEnd=    10990188.
 Iteration    1 A*A^-1 deviation from unit magnitude is 3.33D-15 for   1878.
 Iteration    1 A*A^-1 deviation from orthogonality  is 2.78D-15 for   1872   1501.
 Iteration    1 A^-1*A deviation from unit magnitude is 3.33D-15 for   1878.
 Iteration    1 A^-1*A deviation from orthogonality  is 2.30D-15 for   1873    929.
 Error on total polarization charges =  0.03076
 SCF Done:  E(RB3LYP) =  -426.342052608     A.U. after   11 cycles
            NFock= 11  Conv=0.55D-08     -V/T= 2.0077
 SMD-CDS (non-electrostatic) energy       (kcal/mol) =      -3.37
 (included in total energy above)

 **********************************************************************

            Population analysis using the SCF Density.

 **********************************************************************

 Orbital symmetries:
       Occupied  (A) (A) (A) (A) (A) (A) (A) (A) (A) (A) (A) (A)
                 (A) (A) (A) (A) (A) (A) (A) (A) (A) (A) (A) (A)
                 (A) (A) (A) (A) (A) (A) (A) (A) (A) (A) (A) (A)
                 (A) (A) (A) (A) (A)
       Virtual   (A) (A) (A) (A) (A) (A) (A) (A) (A) (A) (A) (A)
                 (A) (A) (A) (A) (A) (A) (A) (A) (A) (A) (A) (A)
                 (A) (A) (A) (A) (A) (A) (A) (A) (A) (A) (A) (A)
                 (A) (A) (A) (A) (A) (A) (A) (A) (A) (A) (A) (A)
                 (A) (A) (A) (A) (A) (A) (A) (A) (A) (A) (A) (A)
                 (A) (A) (A) (A) (A) (A) (A) (A) (A) (A) (A) (A)
                 (A) (A) (A) (A) (A) (A) (A) (A) (A) (A) (A) (A)
                 (A) (A) (A) (A) (A) (A) (A) (A) (A) (A) (A) (A)
                 (A) (A) (A) (A) (A) (A) (A) (A) (A) (A) (A) (A)
                 (A) (A) (A) (A) (A) (A) (A) (A) (A) (A) (A) (A)
                 (A) (A) (A) (A) (A) (A) (A) (A) (A) (A) (A) (A)
                 (A) (A) (A) (A) (A) (A) (A) (A) (A) (A) (A) (A)
                 (A) (A) (A) (A) (A)
 The electronic state is 1-A.
 Alpha  occ. eigenvalues --  -14.30285 -14.30148 -10.18631 -10.18454 -10.18312
 Alpha  occ. eigenvalues --  -10.18110 -10.17951 -10.17737 -10.15078 -10.14997
 Alpha  occ. eigenvalues --   -0.91414  -0.89558  -0.74758  -0.73376  -0.72020
 Alpha  occ. eigenvalues --   -0.66889  -0.64774  -0.62079  -0.57327  -0.54658
 Alpha  occ. eigenvalues --   -0.48443  -0.47497  -0.46347  -0.45192  -0.43917
 Alpha  occ. eigenvalues --   -0.42665  -0.41767  -0.41000  -0.38641  -0.38016
 Alpha  occ. eigenvalues --   -0.36573  -0.36217  -0.35684  -0.34615  -0.34346
 Alpha  occ. eigenvalues --   -0.33557  -0.32724  -0.32265  -0.31633  -0.19959
 Alpha  occ. eigenvalues --   -0.19114
 Alpha virt. eigenvalues --    0.09216   0.10996   0.11563   0.13174   0.14200
 Alpha virt. eigenvalues --    0.14973   0.15717   0.16378   0.16871   0.17613
 Alpha virt. eigenvalues --    0.18042   0.18176   0.18806   0.19870   0.20457
 Alpha virt. eigenvalues --    0.21179   0.21400   0.21890   0.22593   0.22823
 Alpha virt. eigenvalues --    0.23707   0.25060   0.25814   0.27668   0.28358
 Alpha virt. eigenvalues --    0.28645   0.30018   0.30772   0.31808   0.49630
 Alpha virt. eigenvalues --    0.51695   0.53042   0.54750   0.55177   0.55897
 Alpha virt. eigenvalues --    0.56841   0.57771   0.59042   0.59877   0.62036
 Alpha virt. eigenvalues --    0.62666   0.64844   0.65206   0.66260   0.68411
 Alpha virt. eigenvalues --    0.71955   0.74773   0.75496   0.76803   0.77956
 Alpha virt. eigenvalues --    0.80972   0.82214   0.84348   0.85509   0.86220
 Alpha virt. eigenvalues --    0.86919   0.88848   0.89266   0.90488   0.92044
 Alpha virt. eigenvalues --    0.92784   0.93277   0.94112   0.94833   0.95970
 Alpha virt. eigenvalues --    0.96864   0.98003   0.98227   0.98984   1.00353
 Alpha virt. eigenvalues --    1.01833   1.02039   1.03655   1.05273   1.05563
 Alpha virt. eigenvalues --    1.07404   1.08514   1.10838   1.11289   1.17084
 Alpha virt. eigenvalues --    1.20307   1.30931   1.32931   1.36431   1.40002
 Alpha virt. eigenvalues --    1.41370   1.46817   1.47106   1.53021   1.58212
 Alpha virt. eigenvalues --    1.61508   1.63647   1.70330   1.71380   1.75640
 Alpha virt. eigenvalues --    1.82302   1.88111   1.90400   1.92075   1.92307
 Alpha virt. eigenvalues --    1.92748   1.95820   1.98667   2.00677   2.02596
 Alpha virt. eigenvalues --    2.03529   2.05046   2.06311   2.08423   2.08770
 Alpha virt. eigenvalues --    2.09695   2.11899   2.17973   2.21277   2.22122
 Alpha virt. eigenvalues --    2.24131   2.25802   2.28765   2.30012   2.33015
 Alpha virt. eigenvalues --    2.34526   2.35488   2.37068   2.38915   2.41936
 Alpha virt. eigenvalues --    2.42233   2.44244   2.49943   2.54428   2.58878
 Alpha virt. eigenvalues --    2.61044   2.62520   2.68017   2.71277   2.77990
 Alpha virt. eigenvalues --    2.81958   2.84992   2.86191   2.89403   4.06666
 Alpha virt. eigenvalues --    4.12211   4.23022   4.25012   4.28987   4.33017
 Alpha virt. eigenvalues --    4.35815   4.47959   4.51746   4.57591
          Condensed to atoms (all electrons):
               1          2          3          4          5          6
     1  C    5.024016   0.376341   0.341573   0.372143  -0.046878  -0.038752
     2  H    0.376341   0.587695  -0.034701  -0.035199  -0.003728   0.005297
     3  H    0.341573  -0.034701   0.649884  -0.045236   0.006136  -0.002883
     4  C    0.372143  -0.035199  -0.045236   5.007238   0.349149   0.374016
     5  H   -0.046878  -0.003728   0.006136   0.349149   0.638805  -0.033789
     6  H   -0.038752   0.005297  -0.002883   0.374016  -0.033789   0.589587
     7  N    0.285290  -0.039397  -0.042483  -0.060179   0.004945  -0.004851
     8  N   -0.066466  -0.006057   0.004992   0.300582  -0.045897  -0.037179
     9  C   -0.043682  -0.009221  -0.002459   0.005660  -0.000344  -0.000005
    10  H    0.007029   0.000406  -0.000397  -0.000271   0.000003   0.000007
    11  H   -0.012578   0.001838   0.006492  -0.000461   0.000046  -0.000008
    12  C   -0.048996   0.006070  -0.014545   0.000133  -0.000120   0.001428
    13  H   -0.016695   0.000637   0.017905  -0.001066   0.000066   0.000021
    14  H    0.006924  -0.000346   0.000216  -0.000160   0.000005  -0.000156
    15  H   -0.000644  -0.000077  -0.001922   0.001579  -0.000184   0.003079
    16  C   -0.010667  -0.000452   0.000029   0.000349  -0.000002  -0.000032
    17  H   -0.001336   0.000220   0.000208  -0.000839   0.000106   0.000034
    18  H    0.000473  -0.000156   0.000015  -0.000009   0.000002   0.000001
    19  H   -0.002769   0.006135   0.000150  -0.000660   0.000024  -0.000007
    20  C   -0.001117   0.001574  -0.000012  -0.049363  -0.010989   0.006082
    21  H   -0.000010  -0.000204   0.000005   0.007031   0.000189  -0.000378
    22  H    0.001030   0.002366  -0.000217  -0.005187  -0.001089   0.000143
    23  C   -0.000412  -0.000042   0.000022  -0.012675   0.007423   0.000101
    24  H    0.000004   0.000002  -0.000000   0.000474  -0.000455  -0.000003
    25  H    0.000152  -0.000022  -0.000004   0.000952   0.002297  -0.000289
    26  H   -0.000086  -0.000005   0.000004  -0.001361   0.001297  -0.000153
    27  C    0.006227   0.000038  -0.000287  -0.053490   0.000047  -0.010633
    28  H   -0.000257   0.000010   0.000006   0.006738  -0.000354   0.000448
    29  H   -0.000807  -0.000016   0.000070  -0.017440   0.005932   0.006728
    30  H    0.000071   0.000031   0.000008   0.001452  -0.000372   0.000942
               7          8          9         10         11         12
     1  C    0.285290  -0.066466  -0.043682   0.007029  -0.012578  -0.048996
     2  H   -0.039397  -0.006057  -0.009221   0.000406   0.001838   0.006070
     3  H   -0.042483   0.004992  -0.002459  -0.000397   0.006492  -0.014545
     4  C   -0.060179   0.300582   0.005660  -0.000271  -0.000461   0.000133
     5  H    0.004945  -0.045897  -0.000344   0.000003   0.000046  -0.000120
     6  H   -0.004851  -0.037179  -0.000005   0.000007  -0.000008   0.001428
     7  N    6.867645  -0.001404   0.324310  -0.039305  -0.052897   0.314294
     8  N   -0.001404   6.833254  -0.002069  -0.000007  -0.000001   0.000478
     9  C    0.324310  -0.002069   4.902731   0.383225   0.348564  -0.057760
    10  H   -0.039305  -0.000007   0.383225   0.592531  -0.048840  -0.004613
    11  H   -0.052897  -0.000001   0.348564  -0.048840   0.688777  -0.008121
    12  C    0.314294   0.000478  -0.057760  -0.004613  -0.008121   5.004670
    13  H   -0.047533  -0.000011  -0.010345  -0.001787   0.016348   0.346991
    14  H   -0.036242   0.000020  -0.004137   0.006526  -0.001307   0.382023
    15  H   -0.040368   0.000009   0.006726   0.000154  -0.000511   0.383178
    16  C   -0.064577  -0.001553   0.385306  -0.031784  -0.051816   0.006569
    17  H    0.005578   0.008685  -0.033989  -0.003351   0.006747   0.000144
    18  H    0.004190   0.000140  -0.029855  -0.004381   0.002569  -0.000199
    19  H   -0.002387  -0.000123  -0.035146   0.005191  -0.007809  -0.000119
    20  C    0.000468   0.334388  -0.000016   0.000000   0.000005  -0.000018
    21  H    0.000024  -0.041284   0.000006   0.000000   0.000001  -0.000000
    22  H   -0.000007  -0.038877  -0.000010   0.000000  -0.000003   0.000001
    23  C   -0.000010  -0.062511  -0.000003   0.000000  -0.000000   0.000001
    24  H    0.000000   0.004883   0.000000   0.000000   0.000000  -0.000000
    25  H   -0.000002   0.001149   0.000000   0.000000  -0.000000  -0.000000
    26  H   -0.000001  -0.018641  -0.000000  -0.000000  -0.000000   0.000000
    27  C   -0.001275   0.314840   0.000037   0.000002  -0.000002  -0.000002
    28  H    0.000026  -0.034839   0.000000  -0.000000   0.000000   0.000001
    29  H    0.000034  -0.046173  -0.000008   0.000000   0.000000   0.000002
    30  H    0.002790  -0.043646   0.000007  -0.000005   0.000004  -0.000040
              13         14         15         16         17         18
     1  C   -0.016695   0.006924  -0.000644  -0.010667  -0.001336   0.000473
     2  H    0.000637  -0.000346  -0.000077  -0.000452   0.000220  -0.000156
     3  H    0.017905   0.000216  -0.001922   0.000029   0.000208   0.000015
     4  C   -0.001066  -0.000160   0.001579   0.000349  -0.000839  -0.000009
     5  H    0.000066   0.000005  -0.000184  -0.000002   0.000106   0.000002
     6  H    0.000021  -0.000156   0.003079  -0.000032   0.000034   0.000001
     7  N   -0.047533  -0.036242  -0.040368  -0.064577   0.005578   0.004190
     8  N   -0.000011   0.000020   0.000009  -0.001553   0.008685   0.000140
     9  C   -0.010345  -0.004137   0.006726   0.385306  -0.033989  -0.029855
    10  H   -0.001787   0.006526   0.000154  -0.031784  -0.003351  -0.004381
    11  H    0.016348  -0.001307  -0.000511  -0.051816   0.006747   0.002569
    12  C    0.346991   0.382023   0.383178   0.006569   0.000144  -0.000199
    13  H    0.654010  -0.038929  -0.043229  -0.000357   0.000065   0.000026
    14  H   -0.038929   0.559389  -0.026977   0.000123  -0.000017  -0.000015
    15  H   -0.043229  -0.026977   0.566822  -0.000253  -0.000018   0.000003
    16  C   -0.000357   0.000123  -0.000253   5.124764   0.367780   0.357331
    17  H    0.000065  -0.000017  -0.000018   0.367780   0.532727  -0.024329
    18  H    0.000026  -0.000015   0.000003   0.357331  -0.024329   0.584691
    19  H   -0.000012   0.000007   0.000007   0.382080  -0.030160  -0.028758
    20  C    0.000002  -0.000000   0.000000   0.000120   0.000098  -0.000003
    21  H    0.000000  -0.000000  -0.000000   0.000083  -0.000046  -0.000006
    22  H   -0.000000  -0.000000  -0.000000   0.000006  -0.000111  -0.000001
    23  C   -0.000000   0.000000   0.000000   0.000006   0.000040   0.000000
    24  H    0.000000   0.000000  -0.000000   0.000000  -0.000001  -0.000000
    25  H   -0.000000  -0.000000  -0.000000  -0.000000  -0.000000  -0.000000
    26  H   -0.000000   0.000000   0.000000  -0.000000   0.000001   0.000000
    27  C   -0.000004  -0.000000   0.000040   0.000024  -0.000134  -0.000001
    28  H    0.000000   0.000000  -0.000001  -0.000004   0.000011   0.000000
    29  H   -0.000000   0.000001  -0.000010  -0.000001   0.000024   0.000000
    30  H    0.000013  -0.000015  -0.000040  -0.000015  -0.000008  -0.000000
              19         20         21         22         23         24
     1  C   -0.002769  -0.001117  -0.000010   0.001030  -0.000412   0.000004
     2  H    0.006135   0.001574  -0.000204   0.002366  -0.000042   0.000002
     3  H    0.000150  -0.000012   0.000005  -0.000217   0.000022  -0.000000
     4  C   -0.000660  -0.049363   0.007031  -0.005187  -0.012675   0.000474
     5  H    0.000024  -0.010989   0.000189  -0.001089   0.007423  -0.000455
     6  H   -0.000007   0.006082  -0.000378   0.000143   0.000101  -0.000003
     7  N   -0.002387   0.000468   0.000024  -0.000007  -0.000010   0.000000
     8  N   -0.000123   0.334388  -0.041284  -0.038877  -0.062511   0.004883
     9  C   -0.035146  -0.000016   0.000006  -0.000010  -0.000003   0.000000
    10  H    0.005191   0.000000   0.000000   0.000000   0.000000   0.000000
    11  H   -0.007809   0.000005   0.000001  -0.000003  -0.000000   0.000000
    12  C   -0.000119  -0.000018  -0.000000   0.000001   0.000001  -0.000000
    13  H   -0.000012   0.000002   0.000000  -0.000000  -0.000000   0.000000
    14  H    0.000007  -0.000000  -0.000000  -0.000000   0.000000   0.000000
    15  H    0.000007   0.000000  -0.000000  -0.000000   0.000000  -0.000000
    16  C    0.382080   0.000120   0.000083   0.000006   0.000006   0.000000
    17  H   -0.030160   0.000098  -0.000046  -0.000111   0.000040  -0.000001
    18  H   -0.028758  -0.000003  -0.000006  -0.000001   0.000000  -0.000000
    19  H    0.562158   0.000193   0.000025   0.000377   0.000001   0.000000
    20  C    0.000193   4.914279   0.387586   0.383664   0.349368  -0.025966
    21  H    0.000025   0.387586   0.588415  -0.033830  -0.053289  -0.004112
    22  H    0.000377   0.383664  -0.033830   0.586013  -0.045143   0.002319
    23  C    0.000001   0.349368  -0.053289  -0.045143   5.200017   0.361656
    24  H    0.000000  -0.025966  -0.004112   0.002319   0.361656   0.574857
    25  H    0.000000  -0.034149   0.005184  -0.008200   0.379037  -0.027285
    26  H    0.000000  -0.043812  -0.001071   0.004736   0.389736  -0.029082
    27  C    0.000002  -0.057386  -0.003733   0.007256  -0.023119   0.000356
    28  H   -0.000000  -0.004407   0.004429   0.000088  -0.006626  -0.000043
    29  H   -0.000000  -0.004204  -0.000637  -0.000520  -0.005400  -0.000474
    30  H   -0.000001   0.005603   0.000182  -0.000201   0.001430  -0.000004
              25         26         27         28         29         30
     1  C    0.000152  -0.000086   0.006227  -0.000257  -0.000807   0.000071
     2  H   -0.000022  -0.000005   0.000038   0.000010  -0.000016   0.000031
     3  H   -0.000004   0.000004  -0.000287   0.000006   0.000070   0.000008
     4  C    0.000952  -0.001361  -0.053490   0.006738  -0.017440   0.001452
     5  H    0.002297   0.001297   0.000047  -0.000354   0.005932  -0.000372
     6  H   -0.000289  -0.000153  -0.010633   0.000448   0.006728   0.000942
     7  N   -0.000002  -0.000001  -0.001275   0.000026   0.000034   0.002790
     8  N    0.001149  -0.018641   0.314840  -0.034839  -0.046173  -0.043646
     9  C    0.000000  -0.000000   0.000037   0.000000  -0.000008   0.000007
    10  H    0.000000  -0.000000   0.000002  -0.000000   0.000000  -0.000005
    11  H   -0.000000  -0.000000  -0.000002   0.000000   0.000000   0.000004
    12  C   -0.000000   0.000000  -0.000002   0.000001   0.000002  -0.000040
    13  H   -0.000000  -0.000000  -0.000004   0.000000  -0.000000   0.000013
    14  H   -0.000000   0.000000  -0.000000   0.000000   0.000001  -0.000015
    15  H   -0.000000   0.000000   0.000040  -0.000001  -0.000010  -0.000040
    16  C   -0.000000  -0.000000   0.000024  -0.000004  -0.000001  -0.000015
    17  H   -0.000000   0.000001  -0.000134   0.000011   0.000024  -0.000008
    18  H   -0.000000   0.000000  -0.000001   0.000000   0.000000  -0.000000
    19  H    0.000000   0.000000   0.000002  -0.000000  -0.000000  -0.000001
    20  C   -0.034149  -0.043812  -0.057386  -0.004407  -0.004204   0.005603
    21  H    0.005184  -0.001071  -0.003733   0.004429  -0.000637   0.000182
    22  H   -0.008200   0.004736   0.007256   0.000088  -0.000520  -0.000201
    23  C    0.379037   0.389736  -0.023119  -0.006626  -0.005400   0.001430
    24  H   -0.027285  -0.029082   0.000356  -0.000043  -0.000474  -0.000004
    25  H    0.560407  -0.030936  -0.000609   0.000391   0.000515  -0.000060
    26  H   -0.030936   0.551031   0.008870   0.000024   0.006550  -0.000268
    27  C   -0.000609   0.008870   5.037953   0.377752   0.360708   0.376286
    28  H    0.000391   0.000024   0.377752   0.564588  -0.038128  -0.026750
    29  H    0.000515   0.006550   0.360708  -0.038128   0.632845  -0.043704
    30  H   -0.000060  -0.000268   0.376286  -0.026750  -0.043704   0.567194
 Mulliken charges:
               1
     1  C   -0.129121
     2  H    0.140963
     3  H    0.117433
     4  C   -0.143901
     5  H    0.127732
     6  H    0.141203
     7  N   -0.376674
     8  N   -0.356679
     9  C   -0.127527
    10  H    0.139668
    11  H    0.112965
    12  C   -0.311449
    13  H    0.123884
    14  H    0.153068
    15  H    0.152636
    16  C   -0.463058
    17  H    0.171871
    18  H    0.138272
    19  H    0.151600
    20  C   -0.151986
    21  H    0.145441
    22  H    0.145396
    23  C   -0.479609
    24  H    0.142873
    25  H    0.151472
    26  H    0.163165
    27  C   -0.339766
    28  H    0.156898
    29  H    0.144114
    30  H    0.159116
 Sum of Mulliken charges =  -0.00000
 Mulliken charges with hydrogens summed into heavy atoms:
               1
     1  C    0.129275
     4  C    0.125034
     7  N   -0.376674
     8  N   -0.356679
     9  C    0.125106
    12  C    0.118139
    16  C   -0.001315
    20  C    0.138850
    23  C   -0.022098
    27  C    0.120362
 Electronic spatial extent (au):  <R**2>=           2008.6611
 Charge=             -0.0000 electrons
 Dipole moment (field-independent basis, Debye):
    X=             -0.3516    Y=             -0.5250    Z=             -0.9567  Tot=              1.1465
 Quadrupole moment (field-independent basis, Debye-Ang):
   XX=            -63.0416   YY=            -64.4387   ZZ=            -65.4238
   XY=             -0.4982   XZ=             -0.6073   YZ=             -0.6437
 Traceless Quadrupole moment (field-independent basis, Debye-Ang):
   XX=              1.2598   YY=             -0.1373   ZZ=             -1.1224
   XY=             -0.4982   XZ=             -0.6073   YZ=             -0.6437
 Octapole moment (field-independent basis, Debye-Ang**2):
  XXX=              8.0934  YYY=             -4.1085  ZZZ=              1.8755  XYY=              0.0431
  XXY=              2.1424  XXZ=              8.2862  XZZ=             -1.3844  YZZ=              0.3904
  YYZ=              1.0012  XYZ=              0.2586
 Hexadecapole moment (field-independent basis, Debye-Ang**3):
 XXXX=          -1860.6525 YYYY=           -581.6111 ZZZZ=           -307.2110 XXXY=            -12.8844
 XXXZ=              0.0863 YYYX=             -4.5934 YYYZ=             -1.5767 ZZZX=              0.9241
 ZZZY=             -1.7045 XXYY=           -397.5680 XXZZ=           -354.0119 YYZZ=           -147.6832
 XXYZ=              0.3963 YYXZ=              1.7513 ZZXY=             -1.3305
 N-N= 6.084023185888D+02 E-N=-2.204855269122D+03  KE= 4.230673132783D+02
 D1PCM: PCM CHGder 1st derivatives, ID1Alg=3 FixD1E=F DoIter=F DoCFld=F I1PDM=0.
 Calling FoFJK, ICntrl=      2127 FMM=F ISym2X=0 I1Cent= 0 IOpClX= 0 NMat=1 NMatS=1 NMatT=0.
 ***** Axes restored to original set *****
 -------------------------------------------------------------------
 Center     Atomic                   Forces (Hartrees/Bohr)
 Number     Number              X              Y              Z
 -------------------------------------------------------------------
      1        6           0.015984143   -0.008758695    0.028514272
      2        1           0.001196481    0.009754457   -0.009206492
      3        1          -0.022999685    0.004759204   -0.003888802
      4        6           0.012257166   -0.015866521   -0.029218681
      5        1          -0.013061728    0.016498598    0.003916221
      6        1          -0.008034362   -0.007281022    0.013246208
      7        7          -0.006545764   -0.009094105   -0.005126482
      8        7           0.001988315    0.002597913    0.002962109
      9        6           0.021446368    0.023825834    0.016285487
     10        1           0.002453962   -0.017779536    0.001233118
     11        1          -0.018078255   -0.001897008   -0.018829538
     12        6           0.022556354    0.016353223   -0.007710856
     13        1          -0.023917121   -0.002778935   -0.009490058
     14        1           0.004682923   -0.017033579    0.000977084
     15        1          -0.004952292    0.002334871    0.017177809
     16        6          -0.017033562   -0.018177983    0.002951128
     17        1           0.011854674    0.001647269    0.011268196
     18        1           0.007583391   -0.004749734   -0.016716420
     19        1           0.001718776    0.015431474   -0.006701205
     20        6          -0.008767538   -0.002270348    0.031349282
     21        1           0.017241099   -0.003550814   -0.006558472
     22        1          -0.004934681    0.002840523   -0.017046577
     23        6           0.005269005    0.001102447   -0.021869607
     24        1           0.009468596    0.016829145    0.002010504
     25        1          -0.014757683    0.010418044    0.003688536
     26        1           0.002292751    0.005605616    0.012641783
     27        6          -0.005279348   -0.006383501   -0.024281862
     28        1           0.016917341    0.001762028    0.004223529
     29        1          -0.006431874    0.002097528    0.021363110
     30        1          -0.000117451   -0.018236391    0.002836675
 -------------------------------------------------------------------
 Cartesian Forces:  Max     0.031349282 RMS     0.012923293

 GradGradGradGradGradGradGradGradGradGradGradGradGradGradGradGradGradGrad
 Berny optimization.
 FormGI is forming the generalized inverse of G from B-inverse, IUseBI=4.
 Internal  Forces:  Max     0.066617352 RMS     0.011524604
 Search for a local minimum.
 Step number   1 out of a maximum of  156
 All quantities printed in internal units (Hartrees-Bohrs-Radians)
 Mixed Optimization -- RFO/linear search
 Second derivative matrix not updated -- first step.
 ITU=  0
     Eigenvalues ---    0.00237   0.00237   0.00237   0.00766   0.00766
     Eigenvalues ---    0.00766   0.00766   0.00766   0.00766   0.03189
     Eigenvalues ---    0.03189   0.04502   0.04502   0.04502   0.04502
     Eigenvalues ---    0.05496   0.05496   0.05496   0.05496   0.05720
     Eigenvalues ---    0.05720   0.05720   0.05720   0.07537   0.07537
     Eigenvalues ---    0.07537   0.07537   0.08860   0.08860   0.08860
     Eigenvalues ---    0.08860   0.12453   0.12453   0.12453   0.12453
     Eigenvalues ---    0.16000   0.16000   0.16000   0.16000   0.16000
     Eigenvalues ---    0.16000   0.16000   0.16000   0.16000   0.16000
     Eigenvalues ---    0.16000   0.16000   0.16276   0.16276   0.16276
     Eigenvalues ---    0.16276   0.21985   0.21985   0.21985   0.21985
     Eigenvalues ---    0.28519   0.28519   0.28519   0.35740   0.35740
     Eigenvalues ---    0.35740   0.35740   0.35740   0.35740   0.37230
     Eigenvalues ---    0.37230   0.37230   0.37230   0.37230   0.37230
     Eigenvalues ---    0.37230   0.37230   0.37230   0.37230   0.37230
     Eigenvalues ---    0.37230   0.37230   0.37230   0.37230   0.37230
     Eigenvalues ---    0.37230   0.37230   0.37230   0.37230
 RFO step:  Lambda=-7.00406115D-02 EMin= 2.36824151D-03
 Linear search not attempted -- first point.
 Maximum step size (   0.300) exceeded in Quadratic search.
    -- Step size scaled by   0.710
 Iteration  1 RMS(Cart)=  0.13863770 RMS(Int)=  0.00563669
 Iteration  2 RMS(Cart)=  0.01006724 RMS(Int)=  0.00066821
 Iteration  3 RMS(Cart)=  0.00011216 RMS(Int)=  0.00066678
 Iteration  4 RMS(Cart)=  0.00000015 RMS(Int)=  0.00066678
 Variable       Old X    -DE/DX   Delta X   Delta X   Delta X     New X
                                 (Linear)    (Quad)   (Total)
    R1        2.02201   0.01252   0.00000   0.02008   0.02008   2.04209
    R2        2.02201   0.02300   0.00000   0.03690   0.03690   2.05891
    R3        2.91018   0.00364   0.00000   0.00727   0.00727   2.91744
    R4        2.77790   0.01184   0.00000   0.01966   0.01966   2.79756
    R5        2.02201   0.01991   0.00000   0.03195   0.03195   2.05395
    R6        2.02201   0.01692   0.00000   0.02715   0.02715   2.04916
    R7        2.77790   0.01292   0.00000   0.02145   0.02145   2.79935
    R8        2.77790   0.01260   0.00000   0.02092   0.02092   2.79882
    R9        2.77790   0.00219   0.00000   0.00364   0.00364   2.78154
   R10        2.77790   0.02878   0.00000   0.04778   0.04778   2.82568
   R11        2.77790   0.00998   0.00000   0.01657   0.01657   2.79446
   R12        2.02201   0.01781   0.00000   0.02857   0.02857   2.05058
   R13        2.02201   0.02523   0.00000   0.04048   0.04048   2.06248
   R14        2.91018   0.00289   0.00000   0.00577   0.00577   2.91594
   R15        2.02201   0.02473   0.00000   0.03968   0.03968   2.06169
   R16        2.02201   0.01755   0.00000   0.02815   0.02815   2.05016
   R17        2.02201   0.01788   0.00000   0.02869   0.02869   2.05070
   R18        2.02201   0.01639   0.00000   0.02630   0.02630   2.04831
   R19        2.02201   0.01870   0.00000   0.03000   0.03000   2.05200
   R20        2.02201   0.01511   0.00000   0.02424   0.02424   2.04625
   R21        2.02201   0.01842   0.00000   0.02956   0.02956   2.05156
   R22        2.02201   0.01712   0.00000   0.02747   0.02747   2.04947
   R23        2.91018   0.01898   0.00000   0.03792   0.03792   2.94809
   R24        2.02201   0.01860   0.00000   0.02984   0.02984   2.05184
   R25        2.02201   0.01738   0.00000   0.02789   0.02789   2.04990
   R26        2.02201   0.00854   0.00000   0.01371   0.01371   2.03572
   R27        2.02201   0.01673   0.00000   0.02684   0.02684   2.04885
   R28        2.02201   0.01931   0.00000   0.03099   0.03099   2.05300
   R29        2.02201   0.01844   0.00000   0.02958   0.02958   2.05159
    A1        1.91063  -0.00121   0.00000  -0.01406  -0.01421   1.89642
    A2        1.91063  -0.00419   0.00000  -0.01168  -0.01200   1.89863
    A3        1.91063   0.00142   0.00000   0.01343   0.01344   1.92407
    A4        1.91063  -0.00272   0.00000  -0.00934  -0.00943   1.90120
    A5        1.91063  -0.00229   0.00000  -0.00379  -0.00370   1.90693
    A6        1.91063   0.00899   0.00000   0.02544   0.02537   1.93600
    A7        1.91063  -0.00338   0.00000  -0.00882  -0.00909   1.90154
    A8        1.91063  -0.00445   0.00000  -0.01443  -0.01459   1.89604
    A9        1.91063   0.01057   0.00000   0.02931   0.02926   1.93989
   A10        1.91063  -0.00084   0.00000  -0.01320  -0.01338   1.89725
   A11        1.91063  -0.00070   0.00000   0.00552   0.00550   1.91614
   A12        1.91063  -0.00120   0.00000   0.00162   0.00173   1.91236
   A13        1.91063   0.01576   0.00000   0.05400   0.05406   1.96470
   A14        1.91063  -0.00586   0.00000  -0.01191  -0.01203   1.89860
   A15        1.91063  -0.00534   0.00000  -0.01033  -0.01042   1.90022
   A16        1.91063  -0.00316   0.00000   0.01147   0.00841   1.91904
   A17        1.91063  -0.00034   0.00000   0.02006   0.01738   1.92801
   A18        1.91063   0.01967   0.00000   0.08105   0.07994   1.99057
   A19        1.91063  -0.00990   0.00000  -0.03316  -0.03268   1.87795
   A20        1.91063  -0.00247   0.00000   0.00895   0.00797   1.91861
   A21        1.91063   0.02252   0.00000   0.05939   0.05904   1.96968
   A22        1.91063   0.00088   0.00000  -0.01196  -0.01212   1.89851
   A23        1.91063  -0.00709   0.00000  -0.02352  -0.02302   1.88762
   A24        1.91063  -0.00394   0.00000   0.00030  -0.00080   1.90983
   A25        1.91063   0.01094   0.00000   0.03548   0.03534   1.94598
   A26        1.91063  -0.00031   0.00000  -0.00189  -0.00196   1.90868
   A27        1.91063   0.00101   0.00000   0.00231   0.00221   1.91285
   A28        1.91063  -0.00422   0.00000  -0.01144  -0.01154   1.89910
   A29        1.91063  -0.00467   0.00000  -0.01253  -0.01270   1.89793
   A30        1.91063  -0.00275   0.00000  -0.01194  -0.01196   1.89868
   A31        1.91063  -0.00042   0.00000  -0.00096  -0.00100   1.90963
   A32        1.91063   0.00153   0.00000   0.00396   0.00391   1.91455
   A33        1.91063   0.00987   0.00000   0.03088   0.03078   1.94142
   A34        1.91063  -0.00099   0.00000  -0.00391  -0.00390   1.90673
   A35        1.91063  -0.00394   0.00000  -0.01062  -0.01071   1.89993
   A36        1.91063  -0.00605   0.00000  -0.01935  -0.01944   1.89119
   A37        1.91063  -0.02069   0.00000  -0.04294  -0.04644   1.86419
   A38        1.91063  -0.02186   0.00000  -0.05739  -0.05719   1.85344
   A39        1.91063   0.06662   0.00000   0.17181   0.17142   2.08205
   A40        1.91063   0.00655   0.00000  -0.01320  -0.01595   1.89468
   A41        1.91063  -0.01196   0.00000  -0.01276  -0.01407   1.89656
   A42        1.91063  -0.01865   0.00000  -0.04551  -0.04414   1.86649
   A43        1.91063   0.00313   0.00000   0.00769   0.00757   1.91821
   A44        1.91063   0.00552   0.00000   0.01709   0.01677   1.92740
   A45        1.91063   0.01340   0.00000   0.04324   0.04279   1.95343
   A46        1.91063  -0.00624   0.00000  -0.02308  -0.02307   1.88756
   A47        1.91063  -0.00833   0.00000  -0.02582  -0.02605   1.88458
   A48        1.91063  -0.00748   0.00000  -0.01912  -0.01973   1.89090
   A49        1.91063   0.00320   0.00000   0.01023   0.00979   1.92043
   A50        1.91063   0.01662   0.00000   0.05415   0.05381   1.96444
   A51        1.91063  -0.00429   0.00000  -0.01646  -0.01640   1.89423
   A52        1.91063  -0.00542   0.00000  -0.01026  -0.01102   1.89961
   A53        1.91063  -0.00344   0.00000  -0.01634  -0.01638   1.89425
   A54        1.91063  -0.00667   0.00000  -0.02131  -0.02118   1.88946
    D1        1.04700   0.00102   0.00000   0.01162   0.01164   1.05864
    D2        3.14140  -0.00480   0.00000  -0.01878  -0.01858   3.12282
    D3       -1.04739  -0.00252   0.00000  -0.00769  -0.00761  -1.05501
    D4       -1.04739   0.00674   0.00000   0.04171   0.04155  -1.00584
    D5        1.04700   0.00091   0.00000   0.01131   0.01134   1.05834
    D6        3.14140   0.00319   0.00000   0.02240   0.02230  -3.11948
    D7        3.14140   0.00570   0.00000   0.03649   0.03639  -3.10539
    D8       -1.04739  -0.00012   0.00000   0.00609   0.00618  -1.04122
    D9        1.04700   0.00216   0.00000   0.01718   0.01714   1.06415
   D10       -0.38210   0.00017   0.00000   0.00727   0.00744  -0.37466
   D11       -2.47649   0.00065   0.00000  -0.00585  -0.00574  -2.48223
   D12        1.71230  -0.00185   0.00000  -0.00405  -0.00406   1.70824
   D13       -0.38210  -0.00138   0.00000  -0.01717  -0.01723  -0.39933
   D14       -2.47649  -0.00108   0.00000  -0.00223  -0.00231  -2.47880
   D15        1.71230  -0.00060   0.00000  -0.01535  -0.01548   1.69681
   D16        1.80189  -0.01048   0.00000  -0.05658  -0.05616   1.74574
   D17       -2.38690   0.01147   0.00000   0.06198   0.06161  -2.32529
   D18       -0.29250  -0.01238   0.00000  -0.06711  -0.06682  -0.35932
   D19        1.80190   0.00957   0.00000   0.05145   0.05095   1.85284
   D20       -2.38690  -0.01019   0.00000  -0.05532  -0.05484  -2.44174
   D21       -0.29250   0.01175   0.00000   0.06325   0.06292  -0.22958
   D22       -3.05124   0.00456   0.00000   0.02068   0.02045  -3.03079
   D23       -0.95685  -0.00193   0.00000  -0.00879  -0.00910  -0.96595
   D24        1.13755   0.00552   0.00000   0.03342   0.03383   1.17137
   D25       -0.95685   0.00377   0.00000   0.03284   0.03271  -0.92414
   D26        1.13755  -0.00273   0.00000   0.00337   0.00315   1.14070
   D27       -3.05124   0.00472   0.00000   0.04558   0.04608  -3.00517
   D28        0.97732   0.00697   0.00000   0.03269   0.03267   1.00998
   D29        3.07171   0.00831   0.00000   0.03926   0.03924   3.11095
   D30       -1.11708   0.00537   0.00000   0.02489   0.02478  -1.09230
   D31       -1.11708  -0.00548   0.00000  -0.01982  -0.01974  -1.13682
   D32        0.97732  -0.00413   0.00000  -0.01326  -0.01317   0.96415
   D33        3.07171  -0.00708   0.00000  -0.02763  -0.02763   3.04408
   D34       -2.90470   0.01159   0.00000   0.05322   0.05236  -2.85234
   D35       -0.81030  -0.00645   0.00000  -0.02438  -0.02238  -0.83268
   D36        1.28409  -0.00188   0.00000  -0.01006  -0.00979   1.27431
   D37        1.28409   0.00190   0.00000  -0.02799  -0.02980   1.25429
   D38       -2.90470  -0.01614   0.00000  -0.10560  -0.10454  -3.00924
   D39       -0.81030  -0.01158   0.00000  -0.09128  -0.09195  -0.90225
   D40       -2.71772  -0.00823   0.00000  -0.06200  -0.06299  -2.78071
   D41       -0.62332  -0.00272   0.00000  -0.03515  -0.03551  -0.65883
   D42        1.47107  -0.00334   0.00000  -0.03817  -0.03895   1.43212
   D43       -0.62332  -0.00026   0.00000   0.01395   0.01438  -0.60895
   D44        1.47107   0.00524   0.00000   0.04080   0.04186   1.51294
   D45       -2.71772   0.00462   0.00000   0.03778   0.03842  -2.67930
   D46        0.81054  -0.00332   0.00000  -0.02060  -0.02079   0.78974
   D47        2.90493  -0.00384   0.00000  -0.02355  -0.02379   2.88114
   D48       -1.28386  -0.00427   0.00000  -0.02591  -0.02613  -1.30999
   D49       -1.28386  -0.00064   0.00000  -0.00195  -0.00181  -1.28567
   D50        0.81054  -0.00117   0.00000  -0.00490  -0.00481   0.80572
   D51        2.90493  -0.00159   0.00000  -0.00726  -0.00715   2.89778
   D52        2.90493   0.00504   0.00000   0.02691   0.02704   2.93197
   D53       -1.28386   0.00451   0.00000   0.02396   0.02404  -1.25982
   D54        0.81053   0.00408   0.00000   0.02160   0.02171   0.83224
   D55        2.65379   0.00378   0.00000   0.02833   0.02923   2.68302
   D56       -1.53500   0.00143   0.00000   0.01524   0.01591  -1.51909
   D57        0.55939   0.00386   0.00000   0.02877   0.02970   0.58910
   D58        0.55939  -0.00435   0.00000  -0.01647  -0.01704   0.54236
   D59        2.65379  -0.00670   0.00000  -0.02956  -0.03036   2.62343
   D60       -1.53500  -0.00428   0.00000  -0.01603  -0.01656  -1.55156
   D61       -1.53500   0.00638   0.00000   0.03538   0.03524  -1.49976
   D62        0.55939   0.00403   0.00000   0.02229   0.02192   0.58131
   D63        2.65379   0.00645   0.00000   0.03582   0.03572   2.68950
         Item               Value     Threshold  Converged?
 Maximum Force            0.066617     0.000450     NO 
 RMS     Force            0.011525     0.000300     NO 
 Maximum Displacement     0.843993     0.001800     NO 
 RMS     Displacement     0.143938     0.001200     NO 
 Predicted change in Energy=-3.798445D-02
 GradGradGradGradGradGradGradGradGradGradGradGradGradGradGradGradGradGrad

                          Input orientation:                          
 ---------------------------------------------------------------------
 Center     Atomic      Atomic             Coordinates (Angstroms)
 Number     Number       Type             X           Y           Z
 ---------------------------------------------------------------------
      1          6           0       -2.363845    1.549546    0.054642
      2          1           0       -2.023420    2.121280   -0.796818
      3          1           0       -3.453349    1.550053    0.061737
      4          6           0       -1.854259    2.227622    1.344600
      5          1           0       -2.259544    3.234738    1.397744
      6          1           0       -2.213121    1.662891    2.197917
      7          7           0       -1.876785    0.154583   -0.037273
      8          7           0       -0.374102    2.280648    1.371616
      9          6           0       -1.521587   -0.233413   -1.421783
     10          1           0       -1.286197   -1.292675   -1.415511
     11          1           0       -2.372350   -0.066514   -2.084764
     12          6           0       -2.929761   -0.748446    0.455019
     13          1           0       -3.855463   -0.628576   -0.109772
     14          1           0       -2.594308   -1.776053    0.362828
     15          1           0       -3.129652   -0.538564    1.500781
     16          6           0       -0.293229    0.528827   -1.961353
     17          1           0        0.483725    0.541036   -1.205657
     18          1           0        0.081851    0.034447   -2.852435
     19          1           0       -0.547047    1.549497   -2.218892
     20          6           0        0.095276    3.640762    0.964623
     21          1           0        1.147453    3.547783    0.713834
     22          1           0       -0.453299    3.893030    0.063711
     23          6           0       -0.078831    4.835596    1.952480
     24          1           0        0.673211    5.592905    1.752845
     25          1           0       -1.056371    5.289413    1.829320
     26          1           0        0.024613    4.526837    2.979341
     27          6           0        0.135323    1.835779    2.686656
     28          1           0        1.142795    2.206176    2.839314
     29          1           0       -0.489688    2.169459    3.510233
     30          1           0        0.161342    0.750492    2.697441
 ---------------------------------------------------------------------
                    Distance matrix (angstroms):
                    1          2          3          4          5
     1  C    0.000000
     2  H    1.080627   0.000000
     3  H    1.089527   1.762985   0.000000
     4  C    1.543845   2.150720   2.159150   0.000000
     5  H    2.157469   2.472174   2.459319   1.086905   0.000000
     6  H    2.151556   3.035547   2.472684   1.084367   1.764408
     7  N    1.480405   2.113365   2.107771   2.491500   3.419523
     8  N    2.495597   2.729057   3.425101   1.481353   2.113259
     9  C    2.463367   2.487367   3.018822   3.717558   4.530164
    10  H    3.376522   3.547023   3.867805   4.509257   5.418420
    11  H    2.681191   2.562616   2.896432   4.158368   4.799881
    12  C    2.400277   3.259429   2.389961   3.287102   4.147732
    13  H    2.645028   3.374926   2.222056   3.778608   4.443507
    14  H    3.347790   4.106081   3.448418   4.188193   5.127489
    15  H    2.652919   3.684764   2.556941   3.050049   3.873695
    16  C    3.064891   2.624045   3.888722   4.031383   4.740452
    17  H    3.273240   2.991671   4.257341   3.848968   4.643194
    18  H    4.089995   3.607298   4.825671   5.116018   5.812745
    19  H    2.910277   2.128123   3.694301   3.855792   4.341974
    20  C    3.353882   3.146485   4.216516   2.437629   2.428502
    21  H    4.093495   3.790965   5.058017   3.339307   3.489033
    22  H    3.023604   2.518906   3.806553   2.525262   2.339981
    23  C    4.429582   4.325225   5.075143   3.212972   2.761518
    24  H    5.334450   5.081809   6.019385   4.228463   3.779960
    25  H    4.341149   4.227156   4.780446   3.200960   2.419828
    26  H    4.808623   4.923467   5.428617   3.389532   3.064040
    27  C    3.640778   4.108074   4.455380   2.431685   3.058393
    28  H    4.525714   4.822197   5.410174   3.349174   3.835620
    29  H    3.979682   4.572237   4.589017   2.560352   2.954627
    30  H    3.741584   4.343052   4.544473   2.841609   3.704239
                    6          7          8          9         10
     6  H    0.000000
     7  N    2.717387   0.000000
     8  N    2.108646   2.960266   0.000000
     9  C    4.144444   1.481072   3.929414   0.000000
    10  H    4.759351   2.083960   4.622621   1.085120   0.000000
    11  H    4.621424   2.118181   4.631277   1.091420   1.769491
    12  C    3.060362   1.471928   4.067794   2.402207   2.548798
    13  H    3.643286   2.129263   4.772626   2.706382   2.957551
    14  H    3.916528   2.098160   4.733264   2.591390   2.259933
    15  H    2.484438   2.101366   3.944324   3.349682   3.531539
    16  C    4.719281   2.519879   3.766178   1.543051   2.145180
    17  H    4.485070   2.662043   3.225593   2.160499   2.557178
    18  H    5.781417   3.431592   4.805820   2.165532   2.386956
    19  H    4.721955   2.910919   3.668274   2.182631   3.044619
    20  C    3.280501   4.128712   1.495283   4.828914   5.649098
    21  H    4.129017   4.606950   2.086490   5.097262   5.821237
    22  H    3.553214   4.001561   2.077658   4.513918   5.456496
    23  C    3.831643   5.394778   2.636730   6.257958   7.096252
    24  H    4.896326   6.267563   3.494746   6.988660   7.828727
    25  H    3.824342   5.524828   3.118919   6.425551   7.342046
    26  H    3.717562   5.641975   2.790900   6.664879   7.409431
    27  C    2.404984   3.780845   1.478767   4.889394   5.351235
    28  H    3.459585   4.647758   2.112028   5.586365   6.020424
    29  H    2.224636   4.309126   2.144623   5.582418   6.073200
    30  H    2.592310   3.462330   2.094252   4.557228   4.815213
                   11         12         13         14         15
    11  H    0.000000
    12  C    2.688166   0.000000
    13  H    2.533009   1.091000   0.000000
    14  H    2.993743   1.084898   1.769340   0.000000
    15  H    3.694925   1.085185   1.768837   1.764344   0.000000
    16  C    2.166196   3.797575   4.178211   4.001156   4.601194
    17  H    3.049444   4.009051   4.625744   4.159727   4.641857
    18  H    2.573444   4.541143   4.843990   4.558251   5.439906
    19  H    2.441560   4.255310   4.487539   4.681435   4.986563
    20  C    5.397392   5.354969   5.915227   6.077656   5.306071
    21  H    5.769256   5.928595   6.568825   6.516687   5.967507
    22  H    4.896600   5.275346   5.661248   6.067280   5.372807
    23  C    6.752055   6.446061   6.955070   7.250414   6.196219
    24  H    7.485433   7.408002   7.917389   8.179875   7.219433
    25  H    6.762974   6.469469   6.827707   7.378120   6.194493
    26  H    7.244962   6.552033   7.153732   7.309672   6.147667
    27  C    5.716082   4.588373   5.460717   5.088850   4.207596
    28  H    6.462810   5.567798   6.458755   5.996422   5.251578
    29  H    6.312526   4.878776   5.679954   5.468331   4.282603
    30  H    5.473261   4.102462   5.090874   4.407659   3.731528
                   16         17         18         19         20
    16  C    0.000000
    17  H    1.083920   0.000000
    18  H    1.085874   1.769183   0.000000
    19  H    1.082829   1.762421   1.758484   0.000000
    20  C    4.289104   3.803855   5.251249   3.862736   0.000000
    21  H    4.283257   3.628431   5.118331   3.932602   1.085641
    22  H    3.929932   3.704750   4.866102   3.272798   1.084534
    23  C    5.823428   5.360367   6.794413   5.330854   1.560065
    24  H    6.354066   5.857475   7.242565   5.797660   2.183155
    25  H    6.133088   5.842094   7.129449   5.534835   2.189073
    26  H    6.363613   5.797552   7.361688   6.017722   2.202093
    27  C    4.847243   4.116776   5.824876   4.961047   2.494988
    28  H    5.284134   4.423670   6.183689   5.373289   2.582596
    29  H    5.715639   5.083199   6.735612   5.762857   2.997841
    30  H    4.686164   3.921987   5.596442   5.030960   3.370562
                   21         22         23         24         25
    21  H    0.000000
    22  H    1.761892   0.000000
    23  C    2.167135   2.143853   0.000000
    24  H    2.342428   2.647976   1.085790   0.000000
    25  H    3.022321   2.330442   1.084760   1.757672   0.000000
    26  H    2.711427   3.021757   1.077254   1.749707   1.752883
    27  C    2.801319   3.385055   3.095767   3.908621   3.752698
    28  H    2.513483   3.618973   3.031945   3.587597   3.919537
    29  H    3.521343   3.853639   3.115074   4.020041   3.588971
    30  H    3.568186   4.146066   4.159414   4.960165   4.778940
                   26         27         28         29         30
    26  H    0.000000
    27  C    2.709191   0.000000
    28  H    2.579808   1.084204   0.000000
    29  H    2.470543   1.086398   1.765356   0.000000
    30  H    3.789320   1.085653   1.761362   1.760096   0.000000
 Stoichiometry    C8H20N2
 Framework group  C1[X(C8H20N2)]
 Deg. of freedom    84
 Full point group                 C1      NOp   1
 Largest Abelian subgroup         C1      NOp   1
 Largest concise Abelian subgroup C1      NOp   1
                         Standard orientation:                         
 ---------------------------------------------------------------------
 Center     Atomic      Atomic             Coordinates (Angstroms)
 Number     Number       Type             X           Y           Z
 ---------------------------------------------------------------------
      1          6           0        0.770154   -0.343531   -1.059525
      2          1           0        0.658692    0.668717   -1.421031
      3          1           0        1.156310   -0.962182   -1.868984
      4          6           0       -0.616367   -0.876804   -0.639246
      5          1           0       -1.274120   -0.870411   -1.504511
[...]
 001260,-0.00001399,-0.00000175,-0.00000140,0.00001667,-0.00290667,-0.0
 0763343,0.00125895,0.00049368,0.00022780,0.00006590,-0.00011270,0.0005
 8981,-0.00036802,-0.06737471,-0.28383051,-0.04353785,0.07428432,0.3070
 2377,-0.00026705,0.00006380,0.00007016,0.00000377,0.00001540,0.0000878
 3,-0.00013078,-0.00013016,-0.00008801,0.00216954,0.00041530,-0.0000917
 7,-0.00012147,0.00006595,0.00003190,-0.00025010,-0.00000578,0.00040450
 ,-0.00003835,-0.00002482,-0.00004219,0.00242072,-0.00335710,-0.0068688
 4,0.00000023,0.00002161,0.00007965,0.00000230,-0.00002117,-0.00000819,
 -0.00001334,0.00000072,-0.00001737,0.00005329,0.00000598,-0.00004079,-
 0.00002366,-0.00000126,0.00000060,-0.00000253,-0.00002090,0.00000117,0
 .00000325,0.00001416,-0.00001172,0.00000277,-0.00000163,-0.00001257,-0
 .00000482,0.00000957,0.00000220,-0.00000099,-0.00001207,-0.00001002,-0
 .00000095,-0.00000308,0.00001900,-0.01044388,-0.02932219,-0.00276969,0
 .00018112,0.00048436,0.00127398,-0.00075980,0.00070829,0.00095223,-0.0
 1254571,-0.04286528,-0.05579671,0.01262219,0.04839582,0.05872318,0.000
 46547,0.00014833,-0.00009405,-0.00002608,-0.00008530,-0.00013483,0.000
 03546,0.00003064,0.00005830,-0.00073068,-0.00035742,-0.00005134,-0.000
 00213,-0.00015987,0.00018930,0.00033066,0.00020486,-0.00071001,0.00007
 111,-0.00007220,-0.00006006,0.00066217,0.00019314,-0.00012405,-0.00002
 404,-0.00000329,0.00003687,0.00000278,-0.00001099,-0.00000988,0.000006
 09,0.00000061,-0.00000439,-0.00001455,0.00000652,0.00004733,0.00000914
 ,0.00000008,-0.00000224,-0.00000042,-0.00001230,-0.00000438,-0.0000030
 4,0.00000797,-0.00002273,-0.00000972,-0.00000554,-0.00000889,0.0000083
 1,-0.00000963,0.00000504,0.00000768,0.00000027,-0.00000171,-0.00000775
 ,0.00000269,-0.00000232,-0.01043789,-0.00107004,0.00046434,0.00088628,
 0.00047982,0.00234691,0.00068601,-0.00010998,0.00033088,-0.31008126,-0
 .01287712,0.01136701,-0.00776064,-0.00040950,-0.00008558,0.33729141,-0
 .00011253,-0.00019803,-0.00004565,0.00000346,0.00004563,0.00005935,0.0
 0003456,0.00002769,0.00002985,0.00002158,-0.00004445,-0.00029774,-0.00
 000199,0.00002227,-0.00010373,-0.00029357,-0.00056431,-0.00029954,-0.0
 0000557,0.00006659,0.00006183,-0.00006180,0.00072918,0.00095142,0.0000
 1084,-0.00001104,-0.00006026,-0.00000225,0.00001268,0.00000826,0.00000
 743,0.00000012,0.00001479,-0.00002033,-0.00001900,-0.00003801,0.000010
 19,0.00000355,0.00001063,0.00000123,0.00001382,0.00000379,-0.00000628,
 -0.00001257,0.00002159,0.00000428,0.00000487,0.00000900,-0.00000096,0.
 00000001,-0.00000233,-0.00000468,0.00000445,0.00000641,0.00000247,-0.0
 0000064,-0.00000507,0.01022123,0.00007064,-0.00010563,0.00081757,0.000
 56422,-0.00207143,-0.00070387,0.00003805,0.00021943,-0.01303047,-0.050
 63662,0.00169077,-0.03219770,-0.00008675,0.00159504,0.01510948,0.04880
 873,-0.00014094,-0.00003457,-0.00020657,0.00002749,0.00002526,0.000030
 10,-0.00000342,-0.00000413,-0.00001294,-0.00014026,-0.00097717,0.00046
 081,-0.00021227,0.00014500,-0.00039807,-0.00034210,-0.00033851,-0.0003
 3152,-0.00001957,0.00008701,0.00007749,-0.00152629,0.00080727,0.001874
 76,0.00002106,0.00001659,-0.00004818,-0.00000376,0.00001319,0.00001373
 ,-0.00000118,0.00000008,0.00000673,-0.00001561,0.00000062,0.00002505,0
 .00000430,-0.00000028,-0.00000380,0.00000170,0.00000965,-0.00000140,0.
 00000034,-0.00000838,0.00000766,0.00000307,0.00000198,0.00000306,-0.00
 000332,0.00000469,-0.00000317,-0.00000390,-0.00000067,0.00000209,0.000
 00510,-0.00000155,0.00000162,0.03303973,0.00354509,0.00004482,0.002347
 09,-0.00216737,-0.00577905,-0.00065552,0.00040308,0.00140134,0.0114230
 9,0.00113089,-0.05028714,-0.00586163,0.00040615,-0.00065145,-0.0139651
 1,0.00013381,0.05224534,-0.00001922,-0.00002511,0.00008007,0.00000195,
 0.00000747,0.00000706,0.00000693,-0.00000321,0.00000131,0.00000735,0.0
 0020724,-0.00035432,0.00002849,-0.00008920,0.00014080,-0.00005589,0.00
 000984,0.00009476,0.00002650,-0.00002233,0.00000268,0.00011561,-0.0001
 1711,-0.00087818,-0.00000422,-0.00001985,-0.00000358,0.00000097,-0.000
 00526,-0.00000358,0.00000378,0.00000196,0.00000652,0.00000084,-0.00001
 597,-0.00004106,0.00000382,0.00000401,0.00001391,-0.00000009,-0.000005
 27,-0.00000018,-0.00001386,0.00000591,0.00000218,-0.00000082,0.0000020
 2,0.00000239,0.00000224,-0.00000041,-0.00000075,-0.00000053,0.00000111
 ,0.00000200,-0.00000036,-0.00000156,-0.00000033,0.00504139,-0.00897802
 ,0.00862298,0.00070127,-0.00058703,-0.00055697,0.00025030,0.00091305,0
 .00282147,-0.09016136,0.05790847,-0.07343695,0.00342841,-0.00520134,0.
 00794657,-0.01145454,0.02012420,-0.02403238,0.09214261,0.00003198,-0.0
 0005176,-0.00000861,0.00000037,0.00000434,-0.00000723,0.00002549,0.000
 02381,0.00001971,-0.00039578,0.00000027,-0.00006169,0.00005081,-0.0000
 1344,0.00002389,-0.00000051,-0.00000370,-0.00009998,0.00001584,0.00003
 824,0.00002012,-0.00022572,0.00057242,0.00118477,0.00000894,-0.0000147
 5,-0.00003201,-0.00000077,0.00000837,0.00000247,0.00000401,0.00000116,
 0.00000954,-0.00001709,-0.00000994,0.00000405,0.00000988,0.00000222,0.
 00000302,-0.00000006,0.00000939,0.00000080,-0.00000556,-0.00000626,0.0
 0000831,-0.00000039,0.00000064,0.00000517,0.00000059,-0.00000238,-0.00
 000175,-0.00000064,0.00000348,0.00000439,0.00000154,0.00000128,-0.0000
 0494,-0.00500001,0.00695533,-0.00731768,-0.00036923,0.00011719,0.00073
 470,0.00056242,0.00052525,-0.00248827,0.05780877,-0.13525525,0.1094256
 2,0.01320575,-0.01704552,0.02287780,-0.00109185,0.00137246,-0.00311892
 ,-0.06512459,0.14489311,-0.00001725,0.00009265,0.00004941,-0.00000495,
 0.00001655,0.00002234,0.00000668,-0.00001969,-0.00000563,0.00000774,-0
 .00006557,-0.00016233,0.00020824,-0.00000962,0.00008870,-0.00015882,-0
 .00006501,-0.00002715,0.00008416,-0.00003712,0.00005347,-0.00022452,-0
 .00022780,0.00194469,-0.00000118,-0.00002903,-0.00001061,-0.00000197,-
 0.00001152,-0.00000334,0.00000913,0.00000713,0.00001384,-0.00000148,-0
 .00002266,-0.00002811,0.00000913,0.00000450,0.00001146,-0.00000510,-0.
 00001170,0.00000122,-0.00001752,0.00001006,0.00000170,-0.00001067,0.00
 001852,-0.00000962,0.00000849,-0.00000468,0.00000093,0.00000120,-0.000
 00283,0.00000313,-0.00000082,-0.00000661,0.00000761,-0.01212192,0.0198
 5039,-0.02158761,0.00014449,-0.00009535,0.00136058,0.00279895,-0.00223
 484,-0.00515920,-0.07372947,0.10913661,-0.18723352,0.00333788,-0.00335
 200,0.00511190,0.00027326,-0.00185732,0.00161256,0.07955728,-0.1203427
 2,0.20326154,0.00085680,-0.00074748,0.00016445,-0.00018630,-0.00013428
 ,-0.00038047,0.00021117,0.00023237,0.00021617,-0.02863141,0.02687116,-
 0.02209393,-0.00584868,-0.00129724,-0.00196977,0.00329260,0.00181160,-
 0.00143326,-0.00208129,-0.00201143,-0.00327859,-0.11206065,0.02613928,
 -0.03066078,-0.00064055,0.00046155,0.00029010,-0.00000921,-0.00000129,
 0.00000502,-0.00008572,-0.00019541,-0.00038413,0.00064555,0.00045559,-
 0.00064761,-0.00017062,0.00000716,0.00010130,-0.00000826,0.00001235,0.
 00003222,0.00007661,-0.00005097,0.00024777,-0.00006564,-0.00003059,0.0
 0005856,0.00007181,-0.00000778,-0.00000538,0.00004458,0.00003081,-0.00
 001752,0.00003252,0.00002881,-0.00005986,0.00526480,0.00367843,0.00534
 308,0.00031909,-0.00273264,0.00041311,-0.00016104,-0.00441962,-0.00028
 023,-0.00073693,-0.00134011,-0.00086514,0.00030925,-0.00065394,-0.0005
 9437,0.00006859,0.00010854,0.00000340,0.00039569,0.00018664,-0.0000395
 2,0.57713051,-0.00235898,0.00183369,-0.00036722,0.00033769,0.00019130,
 0.00037192,-0.00005313,-0.00100907,-0.00027455,0.00630618,0.00687145,0
 .00168783,-0.00326464,0.00103473,-0.00070096,-0.00407957,-0.00043490,-
 0.00017179,0.00153050,0.00042988,0.00073361,0.03435212,-0.15487392,0.0
 3682905,-0.00006112,-0.00036833,-0.00029869,0.00001319,-0.00017337,-0.
 00006889,0.00021756,0.00006035,0.00026754,-0.00045175,-0.00039242,0.00
 018297,0.00020026,0.00003884,0.00011819,-0.00003988,-0.00022609,-0.000
 01914,-0.00018543,0.00018924,-0.00008851,-0.00027311,0.00016533,-0.000
 15904,0.00022944,-0.00012821,-0.00006115,0.00008813,-0.00005999,0.0000
 6422,-0.00002856,-0.00006936,0.00010724,0.01342647,-0.03886756,0.02192
 254,0.00181168,0.00117514,0.00083682,-0.00100246,-0.00453731,-0.001846
 36,0.00015802,0.00225179,-0.00049367,-0.00018723,0.00081508,0.00145110
 ,0.00012885,-0.00027777,-0.00010498,0.00071617,-0.00090814,0.00037907,
 0.04627531,0.56414952,-0.00102801,-0.00076177,-0.00088654,-0.00033983,
 -0.00007217,-0.00021979,0.00026158,0.00015702,0.00018645,0.00164133,0.
 00337725,-0.00999591,0.00156964,-0.00091131,0.00056681,0.00389162,-0.0
 0131744,0.00361521,-0.00138864,-0.00072666,-0.00023062,-0.06000271,0.0
 6378617,-0.10888786,-0.00017854,0.00017455,-0.00024334,-0.00000987,0.0
 0013873,0.00005047,0.00000195,-0.00005521,-0.00001490,-0.00079613,0.00
 004104,0.00059130,-0.00007697,-0.00011873,-0.00015496,0.00002824,0.000
 05921,-0.00003440,0.00012862,-0.00017002,-0.00016437,0.00001389,-0.000
 06094,0.00009092,0.00005176,-0.00007032,-0.00006963,0.00003412,0.00007
 768,0.00003961,0.00001564,0.00005111,-0.00014422,0.00854795,-0.0047311
 2,0.00148662,-0.00027524,-0.00061078,-0.00018818,-0.00003660,-0.002378
 98,0.00078888,0.00007374,-0.00421584,0.00302141,0.00038261,-0.00053074
 ,-0.00175109,0.00032462,0.00007273,0.00001282,-0.00092099,0.00021921,-
 0.00048975,-0.00589054,0.05342427,0.51248798,0.00003046,0.00020877,0.0
 0033031,0.00004390,-0.00000492,-0.00004758,-0.00009099,-0.00014097,-0.
 00015053,0.00119165,0.00405821,-0.00051812,-0.00113244,-0.00002900,-0.
 00048284,0.00026568,-0.00013781,0.00015239,-0.00017455,-0.00043456,-0.
 00035381,-0.01798810,-0.00065051,-0.00545285,-0.00013032,0.00014030,0.
 00029064,0.00000872,-0.00005282,-0.00002996,-0.00001971,-0.00002092,-0
 .00010219,0.00018205,0.00010879,-0.00005556,-0.00007798,-0.00000929,-0
 .00002033,-0.00000900,-0.00005752,-0.00000298,0.00004701,0.00002608,-0
 .00005064,-0.00004026,-0.00000555,-0.00005387,0.00001852,-0.00002908,0
 .00001775,0.00003127,-0.00000869,-0.00001765,-0.00001685,0.00000669,0.
 00000758,-0.00003783,-0.00214939,0.00003950,0.00071172,0.00083115,0.00
 009024,0.00062836,0.00003271,-0.00001796,-0.00006449,0.00039991,0.0002
 4114,0.00000516,0.00007344,0.00008858,0.00013483,-0.00010665,-0.000029
 73,-0.00021283,0.00000348,0.00011063,-0.29606234,-0.05055733,-0.002275
 83,0.32578760,0.00029272,-0.00067397,0.00012642,-0.00001057,0.00004618
 ,-0.00000822,-0.00009172,0.00016453,0.00002255,0.00217509,-0.00404078,
 0.00191840,0.00149917,0.00031154,0.00040373,0.00003157,-0.00011462,-0.
 00010632,-0.00101359,-0.00041246,-0.00097433,0.02682029,0.00333503,0.0
 0328296,-0.00022014,0.00029725,0.00024969,-0.00000525,-0.00000793,0.00
 000580,-0.00003005,-0.00008563,-0.00018985,0.00029138,0.00023226,-0.00
 017889,-0.00010497,-0.00002072,-0.00000324,0.00000608,-0.00001769,0.00
 000335,0.00011900,-0.00000972,0.00000861,-0.00004001,-0.00000774,-0.00
 003483,0.00000838,-0.00001752,0.00000953,0.00002473,0.00000233,-0.0000
 1567,0.00000600,0.00001203,-0.00000803,0.00268524,0.00109051,-0.000099
 09,-0.00056808,-0.00022698,0.00006823,0.00009590,0.00044258,-0.0000232
 6,-0.00034804,-0.00027530,-0.00000605,0.00001407,-0.00003219,-0.000087
 90,-0.00007253,0.00005786,0.00011441,0.00002484,0.00000097,-0.00004963
 ,-0.05729458,-0.06265619,-0.00115345,0.05311230,0.06452776,0.00017630,
 -0.00003379,0.00036743,0.00002850,0.00002958,-0.00001344,-0.00005742,-
 0.00009859,-0.00007978,-0.00032359,0.00382559,-0.00046208,-0.00135160,
 -0.00009995,-0.00004310,-0.00048675,-0.00011486,0.00020117,-0.00037067
 ,-0.00042326,-0.00050455,-0.02289871,-0.00328219,-0.00328083,-0.000132
 48,0.00009758,0.00023952,0.00000797,-0.00004063,-0.00002577,-0.0000087
 1,-0.00002484,-0.00009277,0.00020977,0.00002890,-0.00027272,-0.0000670
 0,0.00001238,0.00006289,-0.00001306,-0.00004030,0.00000969,-0.00006609
 ,0.00003566,0.00002768,-0.00003078,0.00000825,-0.00003210,0.00001837,-
 0.00003866,0.00001274,0.00002499,0.00000197,-0.00000202,-0.00001893,0.
 00000698,-0.00000726,-0.00018990,-0.00126632,0.00033460,0.00038875,0.0
 0021181,0.00026396,0.00006268,-0.00018918,-0.00012272,0.00013314,0.000
 15087,0.00000755,-0.00004749,0.00003439,0.00011280,-0.00005724,0.00004
 777,-0.00011045,0.00010418,0.00001635,-0.00007717,0.00188578,0.0002368
 0,-0.05059349,0.00680797,-0.00454333,0.05249007,-0.00034704,-0.0003578
 5,0.00007009,-0.00009774,0.00000610,0.00013757,-0.00003130,-0.00005431
 ,-0.00004089,0.00537013,0.00112288,-0.00282150,0.00013344,-0.00004381,
 0.00019778,0.00052683,-0.00073395,0.00202752,0.00000412,0.00006034,0.0
 0012389,0.00505998,0.00194457,-0.01901151,0.00000669,-0.00001080,0.000
 00705,0.00000204,0.00001112,-0.00000176,0.00001387,0.00000199,0.000010
 59,-0.00014135,-0.00008168,0.00010605,-0.00001824,-0.00001571,-0.00003
 020,-0.00000092,-0.00000328,-0.00000180,-0.00004621,-0.00006289,-0.000
 10608,-0.00001917,0.00001589,-0.00001965,0.00001174,-0.00003178,0.0000
 0782,0.00001243,0.00000905,0.00001205,-0.00000738,0.00000768,-0.000015
 36,0.00019647,-0.00072766,0.00004935,-0.00018087,0.00034476,0.00005821
 ,0.00018128,0.00006756,0.00005233,0.00015777,-0.00006825,0.00090955,-0
 .00008768,-0.00002852,-0.00027617,-0.00007925,0.00008678,0.00010295,-0
 .00011987,0.00039868,-0.00018011,-0.08321767,-0.00067949,0.07436975,-0
 .01082677,0.00071838,0.03058174,0.08123010,0.00068740,-0.00025316,0.00
 005781,-0.00003455,-0.00009413,-0.00017124,0.00005480,0.00022156,0.000
 06729,-0.00418692,-0.00047188,-0.00054464,-0.00007954,-0.00003380,-0.0
 0014161,0.00085937,0.00050706,-0.00086977,-0.00070392,-0.00010964,-0.0
 0017749,-0.00262788,-0.00673971,0.03089824,0.00001345,0.00010006,0.000
 09310,-0.00000270,0.00001614,0.00001094,-0.00006423,-0.00002848,-0.000
 05979,0.00002312,0.00007771,-0.00020031,-0.00012441,-0.00005467,0.0000
 4298,-0.00000826,0.00001951,0.00000785,-0.00013042,-0.00003826,0.00001
 278,0.00009948,-0.00006255,0.00005072,-0.00007279,0.00006153,-0.000005
 50,-0.00004177,0.00000546,-0.00002824,0.00000779,0.00000478,-0.0000058
 2,-0.00011248,0.00332192,0.00281144,-0.00015561,-0.00023281,-0.0000290
 1,0.00011125,-0.00039790,-0.00043523,0.00018647,-0.00016053,-0.0010573
 5,-0.00014466,0.00034174,-0.00001589,-0.00000929,0.00001203,-0.0000652
 3,0.00033181,-0.00131985,-0.00087675,-0.00039168,-0.05260003,-0.000985
 30,-0.00352873,0.00023200,0.00681554,-0.00205136,0.05458365,-0.0002616
 0,0.00011805,0.00030279,0.00013540,0.00016498,0.00031511,-0.00030430,-
 0.00024990,-0.00016163,0.00463759,0.00059875,0.00095225,-0.00031371,0.
 00001081,0.00032384,-0.00222791,-0.00063211,0.00038333,-0.00055066,-0.
 00047903,-0.00014889,-0.00430043,0.01636815,-0.02491717,-0.00003427,0.
 00004221,0.00024085,-0.00000264,-0.00008441,-0.00002172,-0.00005892,0.
 00000052,-0.00005836,0.00029061,-0.00006977,-0.00053618,-0.00012452,0.
 00000788,0.00014169,-0.00003648,-0.00009468,0.00000523,-0.00022138,0.0
 0010007,0.00007170,0.00004268,0.00001713,-0.00001113,-0.00002662,0.000
 04246,-0.00000902,-0.00002608,-0.00003685,-0.00002965,-0.00000462,-0.0
 0002464,0.00006738,-0.00161085,-0.00450344,-0.00047076,0.00032764,0.00
 026162,0.00013374,-0.00019422,0.00062527,0.00025333,0.00011026,0.00087
 001,-0.00041883,-0.00009748,0.00017868,0.00089551,-0.00008534,-0.00002
 092,-0.00003153,0.00063021,-0.00092966,0.00080460,0.07703961,-0.002161
 74,-0.24511543,0.00110045,-0.00108169,0.00120037,-0.08115837,-0.008682
 97,0.27928844,-0.00050012,0.00132431,-0.00073017,-0.00000019,-0.000112
 76,0.00008693,0.00025140,-0.00022962,0.00012168,0.00051468,0.00056935,
 0.00105517,0.00016260,-0.00021027,0.00006945,-0.00035352,0.00020040,0.
 00013472,-0.00080929,-0.00026067,0.00017669,0.00265376,0.01844906,0.00
 469186,0.00050784,-0.00076454,-0.00086985,0.00000027,0.00008797,0.0000
 4186,0.00008132,0.00018529,0.00046386,-0.00106591,-0.00059394,0.000513
 77,0.00039283,0.00013162,-0.00003300,0.00002699,0.00010473,-0.00006405
 ,-0.00008759,0.00000478,-0.00004548,0.00022252,0.00003326,0.00012611,-
 0.00009090,0.00012559,0.00003442,-0.00010938,0.00000044,0.00005693,0.0
 0000464,-0.00002690,0.00000823,-0.00240276,0.00138366,-0.00145322,0.00
 064196,-0.00007111,0.00001196,0.00039669,0.00079646,0.00007005,0.00036
 355,0.00017689,-0.00008861,-0.00002318,0.00003133,0.00006519,-0.000034
 00,-0.00001517,-0.00002236,-0.00011456,-0.00008298,-0.00004196,-0.0587
 5325,-0.04256888,-0.01811717,-0.00220246,-0.02812562,-0.01430972,0.002
 31456,0.01209624,0.00732594,0.05801149,0.00125612,-0.00000146,0.000626
 32,-0.00000111,-0.00006656,-0.00002179,-0.00007584,-0.00002095,0.00003
 182,-0.00113490,-0.00004193,-0.00041185,-0.00007344,0.00000452,-0.0000
 3943,0.00036107,0.00016506,-0.00006575,-0.00208232,-0.00195598,-0.0016
 8119,-0.00317187,-0.02682982,-0.00526238,-0.00028457,0.00021658,0.0002
 1980,-0.00004163,-0.00001354,0.00000356,-0.00010161,-0.00006994,-0.000
 21633,0.00010132,0.00016149,-0.00032089,-0.00009554,0.00000013,0.00002
 601,-0.00004504,-0.00002832,-0.00001702,0.00007039,0.00001215,0.000028
 19,0.00010453,-0.00001118,0.00002300,-0.00001894,0.00002859,-0.0002102
 1,-0.00003759,-0.00001733,-0.00001815,0.00004293,-0.00001531,0.0000455
 8,0.00399657,-0.00095724,0.00262825,-0.00001386,0.00028078,0.00001861,
 -0.00002011,-0.00126616,-0.00033940,-0.00014946,-0.00012560,0.00043389
 ,-0.00001481,-0.00001514,-0.00025564,0.00004358,-0.00000370,-0.0000230
 2,-0.00006184,0.00010106,-0.00019303,-0.03499055,-0.26162367,-0.102708
 19,-0.00107808,-0.00215338,-0.00136453,0.00015554,0.00309225,-0.000354
 77,0.03736107,0.29115460,-0.00041814,0.00083844,-0.00019559,0.00000711
 ,-0.00001832,-0.00008338,0.00012904,-0.00010817,0.00002075,0.00000026,
 -0.00022566,0.00116094,0.00017120,-0.00002589,-0.00008542,-0.00017768,
 0.00001967,-0.00032912,-0.00053737,-0.00082925,-0.00148179,0.00414534,
 0.02355885,0.00807072,-0.00017461,-0.00033650,-0.00045713,0.00001192,0
 .00006653,0.00002320,0.00008209,0.00002632,0.00009417,0.00013622,-0.00
 020124,0.00066349,0.00033813,0.00016649,-0.00015404,0.00005917,0.00010
 659,-0.00001907,0.00027197,-0.00003745,-0.00007386,-0.00011668,0.00017
 702,0.00002625,0.00013332,-0.00034550,-0.00037058,0.00004228,0.0000169
 3,0.00005944,-0.00000504,-0.00000164,-0.00004456,-0.00292632,0.0024743
 6,-0.00156417,-0.00004865,-0.00020747,-0.00009427,-0.00000876,0.001221
 61,0.00020044,-0.00004667,0.00042951,-0.00049351,0.00001307,-0.0000456
 3,0.00039379,-0.00001971,-0.00002884,0.00004528,0.00019290,-0.00014645
 ,0.00044437,-0.01719949,-0.11179647,-0.10375401,0.00038525,0.00235013,
 0.00038979,-0.00516091,-0.02651653,-0.01344988,0.02072076,0.10941856,0
 .11105773\\0.00000752,0.00001968,-0.00000796,-0.00000095,0.00000236,-0
 .00000217,0.00000526,-0.00000474,0.00000188,-0.00002310,-0.00001948,-0
 .00000162,0.00000621,0.00000529,-0.00000002,0.00000339,0.00000273,0.00
 000346,-0.00000652,-0.00000920,0.00000376,0.00001121,0.00001078,0.0000
 0317,0.00000740,-0.00000262,-0.00001099,0.00000317,-0.00000151,0.00000
 245,-0.00000267,-0.00000170,-0.00000185,0.00000066,0.00000063,-0.00000
 257,-0.00000457,-0.00000068,-0.00000046,-0.00000279,-0.00000206,0.0000
 0310,-0.00000156,0.00000328,0.00000554,-0.00000879,0.00000266,0.000006
 06,0.00000230,-0.00000298,0.00000225,-0.00000103,-0.00000254,-0.000000
 60,0.00000251,0.00000061,-0.00000064,0.00000006,-0.00000225,0.00000256
 ,0.00000576,-0.00000028,-0.00000291,0.00000258,-0.00000413,-0.00000182
 ,-0.00000188,0.00000043,-0.00001033,0.00000026,0.00000167,0.00000312,-
 0.00000376,0.00000111,0.00000124,0.00000227,-0.00000264,0.00000267,-0.
 00000856,0.00000109,-0.00000221,0.00000539,0.00000215,0.00000012,0.000
 00246,0.00000031,0.00000294,-0.00000223,0.00000203,0.00000183\\\@
 The archive entry for this job was punched.


 Standing in the middle of the road is very dangerous;
 you get knocked down by the traffic from both sides.
                                -- Margaret Thatcher
 Job cpu time:       0 days  0 hours 46 minutes  6.9 seconds.
 Elapsed time:       0 days  0 hours  5 minutes 46.2 seconds.
 File lengths (MBytes):  RWF=    203 Int=      0 D2E=      0 Chk=     12 Scr=      1
 Normal termination of Gaussian 16 at Sun Oct 24 10:16:02 2021.
