 Entering Gaussian System, Link 0=/home/rtong2/g16/g16
 Input=/home/rtong2/g16/093021/CH2CH2NCHCH3.gjf
 Output=/home/rtong2/g16/093021/CH2CH2NCHCH3.log
 Initial command:
 /home/rtong2/g16/l1.exe "/tmp/Gau-22271.inp" -scrdir="/tmp/"
 Default is to use a total of  16 processors:
                               16 via shared-memory
                                1 via Linda
 Entering Link 1 = /home/rtong2/g16/l1.exe PID=     22273.
  
 Copyright (c) 1988-2019, Gaussian, Inc.  All Rights Reserved.
  
 This is part of the Gaussian(R) 16 program.  It is based on
 the Gaussian(R) 09 system (copyright 2009, Gaussian, Inc.),
 the Gaussian(R) 03 system (copyright 2003, Gaussian, Inc.),
 the Gaussian(R) 98 system (copyright 1998, Gaussian, Inc.),
 the Gaussian(R) 94 system (copyright 1995, Gaussian, Inc.),
 the Gaussian 92(TM) system (copyright 1992, Gaussian, Inc.),
 the Gaussian 90(TM) system (copyright 1990, Gaussian, Inc.),
 the Gaussian 88(TM) system (copyright 1988, Gaussian, Inc.),
 the Gaussian 86(TM) system (copyright 1986, Carnegie Mellon
 University), and the Gaussian 82(TM) system (copyright 1983,
 Carnegie Mellon University). Gaussian is a federally registered
 trademark of Gaussian, Inc.
  
 This software contains proprietary and confidential information,
 including trade secrets, belonging to Gaussian, Inc.
  
 This software is provided under written license and may be
 used, copied, transmitted, or stored only in accord with that
 written license.
  
 The following legend is applicable only to US Government
 contracts under FAR:
  
                    RESTRICTED RIGHTS LEGEND
  
 Use, reproduction and disclosure by the US Government is
 subject to restrictions as set forth in subparagraphs (a)
 and (c) of the Commercial Computer Software - Restricted
 Rights clause in FAR 52.227-19.
  
 Gaussian, Inc.
 340 Quinnipiac St., Bldg. 40, Wallingford CT 06492
  
  
 ---------------------------------------------------------------
 Warning -- This program may not be used in any manner that
 competes with the business of Gaussian, Inc. or will provide
 assistance to any competitor of Gaussian, Inc.  The licensee
 of this program is prohibited from giving any competitor of
 Gaussian, Inc. access to this program.  By using this program,
 the user acknowledges that Gaussian, Inc. is engaged in the
 business of creating and licensing software in the field of
 computational chemistry and represents and warrants to the
 licensee that it is not a competitor of Gaussian, Inc. and that
 it will not use this program in any manner prohibited above.
 ---------------------------------------------------------------
  

 Cite this work as:
 Gaussian 16, Revision C.01,
 M. J. Frisch, G. W. Trucks, H. B. Schlegel, G. E. Scuseria, 
 M. A. Robb, J. R. Cheeseman, G. Scalmani, V. Barone, 
 G. A. Petersson, H. Nakatsuji, X. Li, M. Caricato, A. V. Marenich, 
 J. Bloino, B. G. Janesko, R. Gomperts, B. Mennucci, H. P. Hratchian, 
 J. V. Ortiz, A. F. Izmaylov, J. L. Sonnenberg, D. Williams-Young, 
 F. Ding, F. Lipparini, F. Egidi, J. Goings, B. Peng, A. Petrone, 
 T. Henderson, D. Ranasinghe, V. G. Zakrzewski, J. Gao, N. Rega, 
 G. Zheng, W. Liang, M. Hada, M. Ehara, K. Toyota, R. Fukuda, 
 J. Hasegawa, M. Ishida, T. Nakajima, Y. Honda, O. Kitao, H. Nakai, 
 T. Vreven, K. Throssell, J. A. Montgomery, Jr., J. E. Peralta, 
 F. Ogliaro, M. J. Bearpark, J. J. Heyd, E. N. Brothers, K. N. Kudin, 
 V. N. Staroverov, T. A. Keith, R. Kobayashi, J. Normand, 
 K. Raghavachari, A. P. Rendell, J. C. Burant, S. S. Iyengar, 
 J. Tomasi, M. Cossi, J. M. Millam, M. Klene, C. Adamo, R. Cammi, 
 J. W. Ochterski, R. L. Martin, K. Morokuma, O. Farkas, 
 J. B. Foresman, and D. J. Fox, Gaussian, Inc., Wallingford CT, 2019.
 
 ******************************************
 Gaussian 16:  ES64L-G16RevC.01  3-Jul-2019
                30-Sep-2021 
 ******************************************
 %mem=40GB
 %nprocshared=16
 Will use up to   16 processors via shared memory.
 %chk=/home/rtong2/g16/093021/CH2CH2NCHCH3.chk
 ----------------------------------------------------
 # opt freq b3lyp/6-31g(d) scrf=(smd,solvent=toluene)
 ----------------------------------------------------
 1/18=20,19=15,26=3,38=1/1,3;
 2/9=110,12=2,17=6,18=5,40=1/2;
 3/5=1,6=6,7=1,11=2,25=1,30=1,70=32201,71=1,72=13,74=-5/1,2,3;
 4//1;
 5/5=2,38=5,53=13/2;
 6/7=2,8=2,9=2,10=2,28=1/1;
 7//1,2,3,16;
 1/18=20,19=15,26=3/3(2);
 2/9=110/2;
 99//99;
 2/9=110/2;
 3/5=1,6=6,7=1,11=2,25=1,30=1,70=32205,71=1,72=13,74=-5/1,2,3;
 4/5=5,16=3,69=1/1;
 5/5=2,38=5,53=13/2;
 7//1,2,3,16;
 1/18=20,19=15,26=3/3(-5);
 2/9=110/2;
 6/7=2,8=2,9=2,10=2,19=2,28=1/1;
 99/9=1/99;
 ------------
 CH2CH2NCHCH3
 ------------
 Symbolic Z-matrix:
 Charge =  0 Multiplicity = 1
 C                    -2.36951   0.35887   1.13097 
 H                    -3.26373   0.76659   0.63982 
 H                    -1.63502   0.14756   0.34008 
 C                    -2.76907  -0.95375   1.83114 
 H                    -3.23968  -0.70444   2.79027 
 H                    -3.52813  -1.46319   1.22332 
 C                    -1.62571  -1.95993   2.05442 
 H                    -2.04128  -2.86178   2.52719 
 H                    -1.23821  -2.2662    1.07307 
 N                    -1.94442   1.37023   2.09458 
 N                    -0.50497  -1.37386   2.77725 
 C                    -0.92794   1.87821   0.96139 
 H                    -0.09072   1.19716   0.77049 
 C                    -0.24844  -1.67683   3.98716 
 H                    -0.92305  -2.41393   4.43979 
 C                    -0.56946   3.34502   1.03909 
 H                    -0.95333   3.82183   1.9484 
 H                     0.5167    3.4751    1.01996 
 H                    -0.9963    3.87388   0.17726 
 C                     0.83926  -1.20418   4.91841 
 H                     0.39026  -0.75789   5.81577 
 H                     1.42169  -2.07046   5.25921 
 H                     1.52771  -0.48079   4.47718 
 

 GradGradGradGradGradGradGradGradGradGradGradGradGradGradGradGradGradGrad
 Berny optimization.
 Initialization pass.
                           ----------------------------
                           !    Initial Parameters    !
                           ! (Angstroms and Degrees)  !
 --------------------------                            --------------------------
 ! Name  Definition              Value          Derivative Info.                !
 --------------------------------------------------------------------------------
 ! R1    R(1,2)                  1.0987         estimate D2E/DX2                !
 ! R2    R(1,3)                  1.0998         estimate D2E/DX2                !
 ! R3    R(1,4)                  1.5404         estimate D2E/DX2                !
 ! R4    R(1,10)                 1.4602         estimate D2E/DX2                !
 ! R5    R(4,5)                  1.0971         estimate D2E/DX2                !
 ! R6    R(4,6)                  1.0978         estimate D2E/DX2                !
 ! R7    R(4,7)                  1.5393         estimate D2E/DX2                !
 ! R8    R(7,8)                  1.0998         estimate D2E/DX2                !
 ! R9    R(7,9)                  1.0986         estimate D2E/DX2                !
 ! R10   R(7,11)                 1.4567         estimate D2E/DX2                !
 ! R11   R(10,12)                1.6048         estimate D2E/DX2                !
 ! R12   R(11,14)                1.2734         estimate D2E/DX2                !
 ! R13   R(12,13)                1.096          estimate D2E/DX2                !
 ! R14   R(12,16)                1.512          estimate D2E/DX2                !
 ! R15   R(14,15)                1.0969         estimate D2E/DX2                !
 ! R16   R(14,20)                1.5079         estimate D2E/DX2                !
 ! R17   R(16,17)                1.0962         estimate D2E/DX2                !
 ! R18   R(16,18)                1.0941         estimate D2E/DX2                !
 ! R19   R(16,19)                1.0976         estimate D2E/DX2                !
 ! R20   R(20,21)                1.0982         estimate D2E/DX2                !
 ! R21   R(20,22)                1.0981         estimate D2E/DX2                !
 ! R22   R(20,23)                1.0918         estimate D2E/DX2                !
 ! A1    A(2,1,3)              107.0608         estimate D2E/DX2                !
 ! A2    A(2,1,4)              107.9565         estimate D2E/DX2                !
 ! A3    A(2,1,10)             105.9573         estimate D2E/DX2                !
 ! A4    A(3,1,4)              109.6549         estimate D2E/DX2                !
 ! A5    A(3,1,10)             114.4074         estimate D2E/DX2                !
 ! A6    A(4,1,10)             111.4543         estimate D2E/DX2                !
 ! A7    A(1,4,5)              108.3615         estimate D2E/DX2                !
 ! A8    A(1,4,6)              108.8522         estimate D2E/DX2                !
 ! A9    A(1,4,7)              115.4839         estimate D2E/DX2                !
 ! A10   A(5,4,6)              107.0318         estimate D2E/DX2                !
 ! A11   A(5,4,7)              109.8983         estimate D2E/DX2                !
 ! A12   A(6,4,7)              106.8914         estimate D2E/DX2                !
 ! A13   A(4,7,8)              108.5236         estimate D2E/DX2                !
 ! A14   A(4,7,9)              108.339          estimate D2E/DX2                !
 ! A15   A(4,7,11)             112.3619         estimate D2E/DX2                !
 ! A16   A(8,7,9)              106.7775         estimate D2E/DX2                !
 ! A17   A(8,7,11)             114.0365         estimate D2E/DX2                !
 ! A18   A(9,7,11)             106.5005         estimate D2E/DX2                !
 ! A19   A(1,10,12)             86.4251         estimate D2E/DX2                !
 ! A20   A(7,11,14)            122.0558         estimate D2E/DX2                !
 ! A21   A(10,12,13)           114.2139         estimate D2E/DX2                !
 ! A22   A(10,12,16)           114.8959         estimate D2E/DX2                !
 ! A23   A(13,12,16)           115.5099         estimate D2E/DX2                !
 ! A24   A(11,14,15)           115.3438         estimate D2E/DX2                !
 ! A25   A(11,14,20)           131.1129         estimate D2E/DX2                !
 ! A26   A(15,14,20)           113.5413         estimate D2E/DX2                !
 ! A27   A(12,16,17)           112.4321         estimate D2E/DX2                !
 ! A28   A(12,16,18)           110.4763         estimate D2E/DX2                !
 ! A29   A(12,16,19)           109.566          estimate D2E/DX2                !
 ! A30   A(17,16,18)           108.0868         estimate D2E/DX2                !
 ! A31   A(17,16,19)           107.7937         estimate D2E/DX2                !
 ! A32   A(18,16,19)           108.3647         estimate D2E/DX2                !
 ! A33   A(14,20,21)           109.7003         estimate D2E/DX2                !
 ! A34   A(14,20,22)           109.0861         estimate D2E/DX2                !
 ! A35   A(14,20,23)           114.3916         estimate D2E/DX2                !
 ! A36   A(21,20,22)           106.4897         estimate D2E/DX2                !
 ! A37   A(21,20,23)           108.5899         estimate D2E/DX2                !
 ! A38   A(22,20,23)           108.2813         estimate D2E/DX2                !
 ! D1    D(2,1,4,5)            -81.0944         estimate D2E/DX2                !
 ! D2    D(2,1,4,6)             34.9737         estimate D2E/DX2                !
 ! D3    D(2,1,4,7)            155.1633         estimate D2E/DX2                !
 ! D4    D(3,1,4,5)            162.5949         estimate D2E/DX2                !
 ! D5    D(3,1,4,6)            -81.3371         estimate D2E/DX2                !
 ! D6    D(3,1,4,7)             38.8526         estimate D2E/DX2                !
 ! D7    D(10,1,4,5)            34.8739         estimate D2E/DX2                !
 ! D8    D(10,1,4,6)           150.9419         estimate D2E/DX2                !
 ! D9    D(10,1,4,7)           -88.8684         estimate D2E/DX2                !
 ! D10   D(2,1,10,12)          -95.9545         estimate D2E/DX2                !
 ! D11   D(3,1,10,12)           21.7456         estimate D2E/DX2                !
 ! D12   D(4,1,10,12)          146.8586         estimate D2E/DX2                !
 ! D13   D(1,4,7,8)           -178.1053         estimate D2E/DX2                !
 ! D14   D(1,4,7,9)            -62.5249         estimate D2E/DX2                !
 ! D15   D(1,4,7,11)            54.8569         estimate D2E/DX2                !
 ! D16   D(5,4,7,8)             58.9628         estimate D2E/DX2                !
 ! D17   D(5,4,7,9)            174.5432         estimate D2E/DX2                !
 ! D18   D(5,4,7,11)           -68.075          estimate D2E/DX2                !
 ! D19   D(6,4,7,8)            -56.8517         estimate D2E/DX2                !
 ! D20   D(6,4,7,9)             58.7288         estimate D2E/DX2                !
 ! D21   D(6,4,7,11)           176.1105         estimate D2E/DX2                !
 ! D22   D(4,7,11,14)          107.9113         estimate D2E/DX2                !
 ! D23   D(8,7,11,14)          -16.1184         estimate D2E/DX2                !
 ! D24   D(9,7,11,14)         -133.6186         estimate D2E/DX2                !
 ! D25   D(1,10,12,13)         -70.9308         estimate D2E/DX2                !
 ! D26   D(1,10,12,16)         152.2417         estimate D2E/DX2                !
 ! D27   D(7,11,14,15)           0.5511         estimate D2E/DX2                !
 ! D28   D(7,11,14,20)         180.0            estimate D2E/DX2                !
 ! D29   D(10,12,16,17)          7.8766         estimate D2E/DX2                !
 ! D30   D(10,12,16,18)        128.7189         estimate D2E/DX2                !
 ! D31   D(10,12,16,19)       -111.9642         estimate D2E/DX2                !
 ! D32   D(13,12,16,17)       -128.3819         estimate D2E/DX2                !
 ! D33   D(13,12,16,18)         -7.5395         estimate D2E/DX2                !
 ! D34   D(13,12,16,19)        111.7774         estimate D2E/DX2                !
 ! D35   D(11,14,20,21)        121.9817         estimate D2E/DX2                !
 ! D36   D(11,14,20,22)       -121.728          estimate D2E/DX2                !
 ! D37   D(11,14,20,23)         -0.3049         estimate D2E/DX2                !
 ! D38   D(15,14,20,21)        -58.5616         estimate D2E/DX2                !
 ! D39   D(15,14,20,22)         57.7287         estimate D2E/DX2                !
 ! D40   D(15,14,20,23)        179.1518         estimate D2E/DX2                !
 --------------------------------------------------------------------------------
 Trust Radius=3.00D-01 FncErr=1.00D-07 GrdErr=1.00D-06 EigMax=2.50D+02 EigMin=1.00D-04
 Number of steps in this run=    110 maximum allowed number of steps=    138.
 GradGradGradGradGradGradGradGradGradGradGradGradGradGradGradGradGradGrad

                          Input orientation:                          
 ---------------------------------------------------------------------
 Center     Atomic      Atomic             Coordinates (Angstroms)
 Number     Number       Type             X           Y           Z
 ---------------------------------------------------------------------
      1          6           0       -2.369508    0.358874    1.130965
      2          1           0       -3.263734    0.766593    0.639824
      3          1           0       -1.635023    0.147555    0.340077
      4          6           0       -2.769071   -0.953750    1.831135
      5          1           0       -3.239682   -0.704445    2.790267
      6          1           0       -3.528129   -1.463191    1.223323
      7          6           0       -1.625713   -1.959926    2.054416
      8          1           0       -2.041284   -2.861783    2.527189
      9          1           0       -1.238208   -2.266197    1.073069
     10          7           0       -1.944422    1.370229    2.094577
     11          7           0       -0.504968   -1.373857    2.777249
     12          6           0       -0.927944    1.878210    0.961391
     13          1           0       -0.090722    1.197161    0.770490
     14          6           0       -0.248440   -1.676826    3.987161
     15          1           0       -0.923050   -2.413927    4.439795
     16          6           0       -0.569458    3.345024    1.039092
     17          1           0       -0.953335    3.821834    1.948403
     18          1           0        0.516705    3.475102    1.019959
     19          1           0       -0.996300    3.873880    0.177261
     20          6           0        0.839263   -1.204176    4.918407
     21          1           0        0.390264   -0.757893    5.815767
     22          1           0        1.421688   -2.070459    5.259209
     23          1           0        1.527715   -0.480789    4.477181
 ---------------------------------------------------------------------
                    Distance matrix (angstroms):
                    1          2          3          4          5
     1  C    0.000000
     2  H    1.098679   0.000000
     3  H    1.099831   1.767981   0.000000
     4  C    1.540412   2.150232   2.173061   0.000000
     5  H    2.154328   2.605559   3.050290   1.097069   0.000000
     6  H    2.161215   2.319981   2.637893   1.097786   1.764713
     7  C    2.604386   3.481105   2.716712   1.539322   2.173156
     8  H    3.525592   4.268682   3.742276   2.157488   2.481829
     9  H    2.859054   3.672639   2.553613   2.154234   3.064920
    10  N    1.460166   2.054572   2.160771   2.479985   2.542824
    11  N    3.031355   4.094008   3.087317   2.489535   2.815483
    12  C    2.101248   2.606724   1.970065   3.488008   3.919059
    13  H    2.454697   3.204758   1.916192   3.595128   4.196612
    14  C    4.098884   5.125130   4.307227   3.394829   3.365354
    15  H    4.552913   5.480355   4.886286   3.513547   3.318140
    16  C    3.487939   3.750580   3.442072   4.893372   5.157025
    17  H    3.829602   4.047817   4.068383   5.110465   5.140362
    18  H    4.248932   4.666073   4.020539   5.573962   5.891777
    19  H    3.892367   3.874333   3.784174   5.402225   5.729016
    20  C    5.204234   6.246982   5.376837   4.755421   4.627797
    21  H    5.550755   6.516606   5.908030   5.088914   4.725782
    22  H    6.108782   7.165247   6.201688   5.528217   5.448856
    23  H    5.204857   6.264124   5.245317   5.068295   5.061992
                    6          7          8          9         10
     6  H    0.000000
     7  C    2.134631   0.000000
     8  H    2.422155   1.099800   0.000000
     9  H    2.431282   1.098637   1.764687   0.000000
    10  N    3.360874   3.345613   4.255169   3.842631   0.000000
    11  N    3.400319   1.456721   2.153305   2.058675   3.173023
    12  C    4.241995   4.051281   5.114566   4.157505   1.604800
    13  H    4.370160   3.737896   4.833810   3.661029   2.284593
    14  C    4.294275   2.390090   2.598063   3.133517   3.967716
    15  H    4.246884   2.527822   2.260328   3.384670   4.567613
    16  C    5.648593   5.503550   6.550203   5.651034   2.627621
    17  H    5.923411   5.821691   6.796276   6.157231   2.648394
    18  H    6.386608   5.932924   6.997940   6.003754   3.412102
    19  H    5.999061   6.160615   7.209946   6.209794   3.292918
    20  C    5.726678   3.853532   4.094281   4.497822   4.727629
    21  H    6.077976   4.433600   4.599297   5.236420   4.881283
    22  H    6.415437   4.423751   4.481328   4.963581   5.760549
    23  H    6.092147   4.242846   4.712680   4.735608   4.599870
                   11         12         13         14         15
    11  N    0.000000
    12  C    3.748624   0.000000
    13  H    3.287676   1.095998   0.000000
    14  C    1.273375   4.717551   4.316439   0.000000
    15  H    2.005143   5.524650   5.215029   1.096948   0.000000
    16  C    5.029233   1.511984   2.216901   5.832078   6.697412
    17  H    5.280457   2.180026   3.003413   5.906663   6.715108
    18  H    5.257783   2.154183   2.370699   5.994338   6.960520
    19  H    5.877082   2.145282   2.887355   6.773845   7.596781
    20  C    2.533832   5.318091   4.882264   1.507884   2.190506
    21  H    3.226987   5.679057   5.432165   2.143871   2.522012
    22  H    3.218289   6.291582   5.754418   2.135973   2.507430
    23  H    2.796271   4.894478   4.378860   2.196667   3.121645
                   16         17         18         19         20
    16  C    0.000000
    17  H    1.096155   0.000000
    18  H    1.094091   1.772921   0.000000
    19  H    1.097560   1.772428   1.777174   0.000000
    20  C    6.142377   6.106972   6.098981   7.185709   0.000000
    21  H    6.369586   6.142936   6.397969   7.427560   1.098192
    22  H    7.148532   7.163888   7.038713   8.185844   1.098095
    23  H    5.554767   5.573409   5.350103   6.619902   1.091757
                   21         22         23
    21  H    0.000000
    22  H    1.759665   0.000000
    23  H    1.778312   1.774785   0.000000
 Stoichiometry    C7H14N2
 Framework group  C1[X(C7H14N2)]
 Deg. of freedom    63
 Full point group                 C1      NOp   1
 Largest Abelian subgroup         C1      NOp   1
 Largest concise Abelian subgroup C1      NOp   1
                         Standard orientation:                         
 ---------------------------------------------------------------------
 Center     Atomic      Atomic             Coordinates (Angstroms)
 Number     Number       Type             X           Y           Z
 ---------------------------------------------------------------------
      1          6           0       -1.228623   -1.276817    0.091581
      2          1           0       -2.015247   -1.956536    0.446972
      3          1           0       -1.357364   -1.174865   -0.995920
      4          6           0        0.134130   -1.928608    0.393149
      5          1           0        0.381793   -1.740761    1.445260
      6          1           0        0.041444   -3.015946    0.273817
      7          6           0        1.297935   -1.477388   -0.507668
      8          1           0        2.200677   -2.034549   -0.217517
      9          1           0        1.066172   -1.765645   -1.542171
     10          7           0       -1.403607   -0.034685    0.838959
     11          7           0        1.468571   -0.030697   -0.509614
     12          6           0       -2.242785    0.489653   -0.424462
     13          1           0       -1.635735    0.694165   -1.313774
     14          6           0        2.448003    0.535089    0.075265
     15          1           0        3.154779   -0.142678    0.569628
     16          6           0       -3.296652    1.525152   -0.103210
     17          1           0       -3.241104    1.870105    0.935769
     18          1           0       -3.189074    2.396165   -0.756507
     19          1           0       -4.294229    1.095565   -0.261108
     20          6           0        2.820439    1.990739    0.202114
     21          1           0        2.880270    2.266429    1.263453
     22          1           0        3.824290    2.142314   -0.216358
     23          1           0        2.133905    2.676978   -0.297567
 ---------------------------------------------------------------------
 Rotational constants (GHZ):           1.9625376           0.8728493           0.6550371
 Standard basis: 6-31G(d) (6D, 7F)
 There are   163 symmetry adapted cartesian basis functions of A   symmetry.
 There are   163 symmetry adapted basis functions of A   symmetry.
   163 basis functions,   308 primitive gaussians,   163 cartesian basis functions
    35 alpha electrons       35 beta electrons
       nuclear repulsion energy       432.5296295680 Hartrees.
 NAtoms=   23 NActive=   23 NUniq=   23 SFac= 1.00D+00 NAtFMM=   60 NAOKFM=F Big=F
 Integral buffers will be    131072 words long.
 Raffenetti 2 integral format.
 Two-electron integral symmetry is turned on.
 ------------------------------------------------------------------------------
 Polarizable Continuum Model (PCM)
 =================================
 Model                : PCM.
 Atomic radii         : SMD-Coulomb.
 Polarization charges : Total charges.
 Charge compensation  : None.
 Solution method      : On-the-fly selection.
 Cavity type          : VdW (van der Waals Surface) (Alpha=1.000).
 Cavity algorithm     : GePol (No added spheres)
                        Default sphere list used, NSphG=   23.
                        Lebedev-Laikov grids with approx.  5.0 points / Ang**2.
                        Smoothing algorithm: York/Karplus (Gamma=1.0000).
                        Polarization charges: spherical gaussians, with
                                              point-specific exponents (IZeta= 3).
                        Self-potential: point-specific (ISelfS= 7).
                        Self-field    : sphere-specific E.n sum rule (ISelfD= 2).
 1st derivatives      : Analytical E(r).r(x)/FMM algorithm (CHGder, D1EAlg=3).
                        Cavity 1st derivative terms included.
 Solvent              : Toluene, Eps=   2.374100 Eps(inf)=   2.238315
 ------------------------------------------------------------------------------
 ------------------------------------------------------------------------------
 Atomic radii for non-electrostatic terms: SMD-CDS.
 ------------------------------------------------------------------------------
 Nuclear repulsion after PCM non-electrostatic terms =      432.5260937620 Hartrees.
 One-electron integrals computed using PRISM.
 NBasis=   163 RedAO= T EigKep=  4.23D-03  NBF=   163
 NBsUse=   163 1.00D-06 EigRej= -1.00D+00 NBFU=   163
 ExpMin= 1.61D-01 ExpMax= 4.17D+03 ExpMxC= 6.27D+02 IAcc=3 IRadAn=         5 AccDes= 0.00D+00
 Harris functional with IExCor=  402 and IRadAn=       5 diagonalized for initial guess.
 HarFok:  IExCor=  402 AccDes= 0.00D+00 IRadAn=         5 IDoV= 1 UseB2=F ITyADJ=14
 ICtDFT=  3500011 ScaDFX=  1.000000  1.000000  1.000000  1.000000
 FoFCou: FMM=F IPFlag=           0 FMFlag=      100000 FMFlg1=           0
         NFxFlg=           0 DoJE=T BraDBF=F KetDBF=T FulRan=T
         wScrn=  0.000000 ICntrl=       500 IOpCl=  0 I1Cent=   200000004 NGrid=           0
         NMat0=    1 NMatS0=      1 NMatT0=    0 NMatD0=    1 NMtDS0=    0 NMtDT0=    0
 Petite list used in FoFCou.
 Requested convergence on RMS density matrix=1.00D-08 within 128 cycles.
 Requested convergence on MAX density matrix=1.00D-06.
 Requested convergence on             energy=1.00D-06.
 No special actions if energy rises.
 Inv3:  Mode=1 IEnd=     8895852.
 Iteration    1 A*A^-1 deviation from unit magnitude is 5.77D-15 for   1718.
 Iteration    1 A*A^-1 deviation from orthogonality  is 1.90D-15 for    902    547.
 Iteration    1 A^-1*A deviation from unit magnitude is 5.77D-15 for   1718.
 Iteration    1 A^-1*A deviation from orthogonality  is 1.56D-15 for   1677   1202.
 Error on total polarization charges =  0.02670
 SCF Done:  E(RB3LYP) =  -384.511241453     A.U. after   14 cycles
            NFock= 14  Conv=0.38D-08     -V/T= 2.0105
 SMD-CDS (non-electrostatic) energy       (kcal/mol) =      -2.22
 (included in total energy above)

 **********************************************************************

            Population analysis using the SCF Density.

 **********************************************************************

 Orbital symmetries:
       Occupied  (A) (A) (A) (A) (A) (A) (A) (A) (A) (A) (A) (A)
                 (A) (A) (A) (A) (A) (A) (A) (A) (A) (A) (A) (A)
                 (A) (A) (A) (A) (A) (A) (A) (A) (A) (A) (A)
       Virtual   (A) (A) (A) (A) (A) (A) (A) (A) (A) (A) (A) (A)
                 (A) (A) (A) (A) (A) (A) (A) (A) (A) (A) (A) (A)
                 (A) (A) (A) (A) (A) (A) (A) (A) (A) (A) (A) (A)
                 (A) (A) (A) (A) (A) (A) (A) (A) (A) (A) (A) (A)
                 (A) (A) (A) (A) (A) (A) (A) (A) (A) (A) (A) (A)
                 (A) (A) (A) (A) (A) (A) (A) (A) (A) (A) (A) (A)
                 (A) (A) (A) (A) (A) (A) (A) (A) (A) (A) (A) (A)
                 (A) (A) (A) (A) (A) (A) (A) (A) (A) (A) (A) (A)
                 (A) (A) (A) (A) (A) (A) (A) (A) (A) (A) (A) (A)
                 (A) (A) (A) (A) (A) (A) (A) (A) (A) (A) (A) (A)
                 (A) (A) (A) (A) (A) (A) (A) (A)
 The electronic state is 1-A.
 Alpha  occ. eigenvalues --  -14.34011 -14.31420 -10.24381 -10.22168 -10.20079
 Alpha  occ. eigenvalues --  -10.19624 -10.18179 -10.17809 -10.16758  -0.90395
 Alpha  occ. eigenvalues --   -0.86402  -0.76309  -0.73625  -0.71019  -0.63868
 Alpha  occ. eigenvalues --   -0.57849  -0.57111  -0.53642  -0.47544  -0.45591
 Alpha  occ. eigenvalues --   -0.44094  -0.43338  -0.41718  -0.41264  -0.39924
 Alpha  occ. eigenvalues --   -0.38911  -0.37662  -0.37412  -0.34624  -0.33796
 Alpha  occ. eigenvalues --   -0.31339  -0.28108  -0.27587  -0.23401  -0.20505
 Alpha virt. eigenvalues --   -0.07886   0.01353   0.10449   0.11870   0.12029
 Alpha virt. eigenvalues --    0.12788   0.13601   0.14996   0.15349   0.16128
 Alpha virt. eigenvalues --    0.17354   0.17683   0.18205   0.19120   0.20298
 Alpha virt. eigenvalues --    0.20801   0.22082   0.22542   0.24118   0.26231
 Alpha virt. eigenvalues --    0.28302   0.28559   0.29923   0.39600   0.50820
 Alpha virt. eigenvalues --    0.52175   0.52457   0.54899   0.55837   0.56083
 Alpha virt. eigenvalues --    0.56744   0.58237   0.60437   0.61788   0.62875
 Alpha virt. eigenvalues --    0.65078   0.66915   0.67957   0.69424   0.71796
 Alpha virt. eigenvalues --    0.72283   0.74704   0.76432   0.77331   0.78719
 Alpha virt. eigenvalues --    0.80045   0.82190   0.83452   0.84984   0.85675
 Alpha virt. eigenvalues --    0.86936   0.88366   0.89618   0.90213   0.90968
 Alpha virt. eigenvalues --    0.91875   0.92861   0.94326   0.95345   0.95924
 Alpha virt. eigenvalues --    0.96970   0.97647   0.98534   0.99512   1.01281
 Alpha virt. eigenvalues --    1.07180   1.14247   1.25106   1.26798   1.30677
 Alpha virt. eigenvalues --    1.35895   1.38808   1.41478   1.45374   1.47987
 Alpha virt. eigenvalues --    1.48576   1.54780   1.60263   1.66279   1.67401
 Alpha virt. eigenvalues --    1.71349   1.73352   1.74556   1.78697   1.81419
 Alpha virt. eigenvalues --    1.85573   1.87173   1.91886   1.92648   1.94504
 Alpha virt. eigenvalues --    1.97495   1.99712   2.03349   2.07555   2.09582
 Alpha virt. eigenvalues --    2.12427   2.14713   2.16382   2.18283   2.21114
 Alpha virt. eigenvalues --    2.25375   2.28367   2.29097   2.32875   2.34452
 Alpha virt. eigenvalues --    2.36879   2.39051   2.44314   2.48991   2.51323
 Alpha virt. eigenvalues --    2.55251   2.61511   2.63417   2.66889   2.68034
 Alpha virt. eigenvalues --    2.71612   2.83209   2.90768   3.00524   3.75264
 Alpha virt. eigenvalues --    3.96767   4.11170   4.12828   4.20932   4.35164
 Alpha virt. eigenvalues --    4.36676   4.41594   4.54184
          Condensed to atoms (all electrons):
               1          2          3          4          5          6
     1  C    5.050075   0.386409   0.325645   0.310269  -0.041549  -0.024116
     2  H    0.386409   0.608823  -0.043140  -0.049970   0.000224  -0.004698
     3  H    0.325645  -0.043140   0.646540  -0.036011   0.005754   0.001630
     4  C    0.310269  -0.049970  -0.036011   5.167875   0.366664   0.335605
     5  H   -0.041549   0.000224   0.005754   0.366664   0.585363  -0.030810
     6  H   -0.024116  -0.004698   0.001630   0.335605  -0.030810   0.624917
     7  C   -0.037703   0.004007  -0.007972   0.371127  -0.036251  -0.032976
     8  H    0.005235  -0.000151   0.000040  -0.034881  -0.004991  -0.001594
     9  H   -0.007756   0.000081   0.004859  -0.042044   0.005734  -0.002519
    10  N    0.235525  -0.038864  -0.038553  -0.069857   0.002523   0.004600
    11  N    0.001697   0.000180  -0.000459  -0.057395  -0.002304   0.004355
    12  C   -0.063291  -0.025531  -0.004898   0.011676  -0.000069  -0.000434
    13  H   -0.025300   0.001194   0.000602   0.000841  -0.000030  -0.000032
    14  C   -0.000347  -0.000001   0.000053  -0.002854   0.002600  -0.000006
    15  H    0.000171   0.000002  -0.000001   0.000420   0.000109  -0.000039
    16  C    0.008435  -0.000136   0.001839  -0.000465   0.000010   0.000011
    17  H    0.000181  -0.000132   0.000277   0.000011   0.000002  -0.000000
    18  H   -0.000071  -0.000051   0.000061   0.000015   0.000000  -0.000000
    19  H   -0.000767   0.000520  -0.000358  -0.000006  -0.000000  -0.000000
    20  C   -0.000018  -0.000000  -0.000001  -0.000154  -0.000078   0.000004
    21  H    0.000002   0.000000  -0.000000   0.000029  -0.000004  -0.000000
    22  H   -0.000000  -0.000000   0.000000  -0.000006   0.000001   0.000000
    23  H    0.000007   0.000000  -0.000000  -0.000005   0.000001  -0.000000
               7          8          9         10         11         12
     1  C   -0.037703   0.005235  -0.007756   0.235525   0.001697  -0.063291
     2  H    0.004007  -0.000151   0.000081  -0.038864   0.000180  -0.025531
     3  H   -0.007972   0.000040   0.004859  -0.038553  -0.000459  -0.004898
     4  C    0.371127  -0.034881  -0.042044  -0.069857  -0.057395   0.011676
     5  H   -0.036251  -0.004991   0.005734   0.002523  -0.002304  -0.000069
     6  H   -0.032976  -0.001594  -0.002519   0.004600   0.004355  -0.000434
     7  C    4.946345   0.336173   0.377073  -0.002028   0.300124   0.000047
     8  H    0.336173   0.649954  -0.045279  -0.000179  -0.039450   0.000015
     9  H    0.377073  -0.045279   0.609472   0.000119  -0.045406  -0.000008
    10  N   -0.002028  -0.000179   0.000119   7.007786   0.002826   0.334141
    11  N    0.300124  -0.039450  -0.045406   0.002826   6.723307  -0.000982
    12  C    0.000047   0.000015  -0.000008   0.334141  -0.000982   5.175647
    13  H   -0.000172   0.000021  -0.000162  -0.024031   0.004525   0.365503
    14  C   -0.049250  -0.009759   0.002698   0.000876   0.592393   0.000044
    15  H   -0.021024   0.023613  -0.000302  -0.000024  -0.068763  -0.000002
    16  C   -0.000016  -0.000000   0.000001  -0.051868   0.000020   0.328293
    17  H   -0.000000   0.000000  -0.000000   0.002358   0.000001  -0.026495
    18  H    0.000000   0.000000  -0.000000   0.002332  -0.000000  -0.022915
    19  H    0.000000  -0.000000   0.000000   0.000188  -0.000000  -0.036057
    20  C    0.006738  -0.000421  -0.000199   0.000015  -0.049979   0.000010
    21  H   -0.000138   0.000003  -0.000004  -0.000000   0.000289   0.000000
    22  H   -0.000226   0.000028   0.000018   0.000000   0.000227  -0.000000
    23  H   -0.000123   0.000046  -0.000003   0.000018   0.003650  -0.000003
              13         14         15         16         17         18
     1  C   -0.025300  -0.000347   0.000171   0.008435   0.000181  -0.000071
     2  H    0.001194  -0.000001   0.000002  -0.000136  -0.000132  -0.000051
     3  H    0.000602   0.000053  -0.000001   0.001839   0.000277   0.000061
     4  C    0.000841  -0.002854   0.000420  -0.000465   0.000011   0.000015
     5  H   -0.000030   0.002600   0.000109   0.000010   0.000002   0.000000
     6  H   -0.000032  -0.000006  -0.000039   0.000011  -0.000000  -0.000000
     7  C   -0.000172  -0.049250  -0.021024  -0.000016  -0.000000   0.000000
     8  H    0.000021  -0.009759   0.023613  -0.000000   0.000000   0.000000
     9  H   -0.000162   0.002698  -0.000302   0.000001  -0.000000  -0.000000
    10  N   -0.024031   0.000876  -0.000024  -0.051868   0.002358   0.002332
    11  N    0.004525   0.592393  -0.068763   0.000020   0.000001  -0.000000
    12  C    0.365503   0.000044  -0.000002   0.328293  -0.026495  -0.022915
    13  H    0.513526  -0.000016   0.000012  -0.055811   0.004108  -0.001011
    14  C   -0.000016   4.737432   0.344225   0.000001   0.000000  -0.000000
    15  H    0.000012   0.344225   0.694109  -0.000000   0.000000   0.000000
    16  C   -0.055811   0.000001  -0.000000   5.174706   0.366434   0.347021
    17  H    0.004108   0.000000   0.000000   0.366434   0.518198  -0.024965
    18  H   -0.001011  -0.000000   0.000000   0.347021  -0.024965   0.570329
    19  H    0.001517   0.000000  -0.000000   0.370673  -0.026469  -0.030202
    20  C   -0.000042   0.357417  -0.083716   0.000000  -0.000000   0.000000
    21  H    0.000001  -0.026088   0.001097  -0.000000  -0.000000  -0.000000
    22  H    0.000000  -0.027645   0.001113  -0.000000   0.000000   0.000000
    23  H    0.000051  -0.025104   0.005965   0.000000   0.000000  -0.000000
              19         20         21         22         23
     1  C   -0.000767  -0.000018   0.000002  -0.000000   0.000007
     2  H    0.000520  -0.000000   0.000000  -0.000000   0.000000
     3  H   -0.000358  -0.000001  -0.000000   0.000000  -0.000000
     4  C   -0.000006  -0.000154   0.000029  -0.000006  -0.000005
     5  H   -0.000000  -0.000078  -0.000004   0.000001   0.000001
     6  H   -0.000000   0.000004  -0.000000   0.000000  -0.000000
     7  C    0.000000   0.006738  -0.000138  -0.000226  -0.000123
     8  H   -0.000000  -0.000421   0.000003   0.000028   0.000046
     9  H    0.000000  -0.000199  -0.000004   0.000018  -0.000003
    10  N    0.000188   0.000015  -0.000000   0.000000   0.000018
    11  N   -0.000000  -0.049979   0.000289   0.000227   0.003650
    12  C   -0.036057   0.000010   0.000000  -0.000000  -0.000003
    13  H    0.001517  -0.000042   0.000001   0.000000   0.000051
    14  C    0.000000   0.357417  -0.026088  -0.027645  -0.025104
    15  H   -0.000000  -0.083716   0.001097   0.001113   0.005965
    16  C    0.370673   0.000000  -0.000000  -0.000000   0.000000
    17  H   -0.026469  -0.000000  -0.000000   0.000000   0.000000
    18  H   -0.030202   0.000000  -0.000000   0.000000  -0.000000
    19  H    0.546642   0.000000   0.000000  -0.000000   0.000000
    20  C    0.000000   5.184291   0.365353   0.364804   0.354315
    21  H    0.000000   0.365353   0.537571  -0.031210  -0.023855
    22  H   -0.000000   0.364804  -0.031210   0.546169  -0.025292
    23  H    0.000000   0.354315  -0.023855  -0.025292   0.538072
 Mulliken charges:
               1
     1  C   -0.122733
     2  H    0.161234
     3  H    0.144093
     4  C   -0.270885
     5  H    0.147102
     6  H    0.126103
     7  C   -0.153756
     8  H    0.121577
     9  H    0.143629
    10  N   -0.367903
    11  N   -0.368857
    12  C   -0.034692
    13  H    0.214708
    14  C    0.103333
    15  H    0.103035
    16  C   -0.489148
    17  H    0.186490
    18  H    0.159457
    19  H    0.174318
    20  C   -0.498339
    21  H    0.176956
    22  H    0.172019
    23  H    0.172260
 Sum of Mulliken charges =  -0.00000
 Mulliken charges with hydrogens summed into heavy atoms:
               1
     1  C    0.182594
     4  C    0.002319
     7  C    0.111450
    10  N   -0.367903
    11  N   -0.368857
    12  C    0.180016
    14  C    0.206368
    16  C    0.031117
    20  C    0.022896
 Electronic spatial extent (au):  <R**2>=           1827.0610
 Charge=             -0.0000 electrons
 Dipole moment (field-independent basis, Debye):
    X=              0.3287    Y=              0.1060    Z=             -1.3146  Tot=              1.3592
 Quadrupole moment (field-independent basis, Debye-Ang):
   XX=            -47.5133   YY=            -51.8020   ZZ=            -58.4573
   XY=              0.4979   XZ=              5.0201   YZ=              0.1869
 Traceless Quadrupole moment (field-independent basis, Debye-Ang):
   XX=              5.0775   YY=              0.7889   ZZ=             -5.8664
   XY=              0.4979   XZ=              5.0201   YZ=              0.1869
 Octapole moment (field-independent basis, Debye-Ang**2):
  XXX=              3.0170  YYY=              4.4356  ZZZ=             -3.1194  XYY=              1.6388
  XXY=             13.9459  XXZ=             -1.6341  XZZ=              2.1060  YZZ=              1.0422
  YYZ=             -0.6426  XYZ=              2.9174
 Hexadecapole moment (field-independent basis, Debye-Ang**3):
 XXXX=          -1489.7731 YYYY=           -714.4660 ZZZZ=           -159.6780 XXXY=             13.1551
 XXXZ=             10.2182 YYYX=              6.4995 YYYZ=             -0.0239 ZZZX=              7.8992
 ZZZY=              3.1445 XXYY=           -362.6134 XXZZ=           -298.5376 YYZZ=           -143.0953
 XXYZ=              0.8774 YYXZ=             -0.5451 ZZXY=             -1.2317
 N-N= 4.325260937620D+02 E-N=-1.756537589598D+03  KE= 3.805126088598D+02
 D1PCM: PCM CHGder 1st derivatives, ID1Alg=3 FixD1E=F DoIter=F DoCFld=F I1PDM=0.
 Calling FoFJK, ICntrl=      2127 FMM=F ISym2X=0 I1Cent= 0 IOpClX= 0 NMat=1 NMatS=1 NMatT=0.
 ***** Axes restored to original set *****
 -------------------------------------------------------------------
 Center     Atomic                   Forces (Hartrees/Bohr)
 Number     Number              X              Y              Z
 -------------------------------------------------------------------
      1        6          -0.033352516   -0.046322354    0.034413205
      2        1           0.000891784   -0.002336586   -0.004346295
      3        1          -0.005501261   -0.001830149   -0.006677285
      4        6          -0.003249280   -0.003857630   -0.004785693
      5        1           0.000214570    0.000061052    0.001069224
      6        1          -0.000996067   -0.002414429    0.000671545
      7        6           0.002951589    0.003315981    0.002925460
      8        1           0.000885635   -0.002321016    0.005052571
      9        1          -0.000027259   -0.000469731   -0.000074921
     10        7           0.090010225    0.045126946   -0.142901303
     11        7           0.019447708    0.016507231    0.001436913
     12        6          -0.030719515    0.024037495    0.149592451
     13        1          -0.016684823   -0.005485742   -0.015292306
     14        6          -0.019480839   -0.013751043   -0.006069394
     15        1          -0.000646906   -0.005425181    0.009785014
     16        6           0.000383314   -0.009777387   -0.005969174
     17        1          -0.004803483   -0.003865996   -0.000843366
     18        1           0.003055406    0.002202186   -0.003911627
     19        1           0.001249169    0.003858239   -0.001056852
     20        6          -0.001215294    0.001962661   -0.008356806
     21        1          -0.000838190   -0.000166529   -0.000846954
     22        1          -0.000513676   -0.000421015   -0.000211429
     23        1          -0.001060291    0.001372997   -0.003602978
 -------------------------------------------------------------------
 Cartesian Forces:  Max     0.149592451 RMS     0.029820135

 GradGradGradGradGradGradGradGradGradGradGradGradGradGradGradGradGradGrad
 Berny optimization.
 FormGI is forming the generalized inverse of G from B-inverse, IUseBI=4.
 Internal  Forces:  Max     0.171416899 RMS     0.021732558
 Search for a local minimum.
 Step number   1 out of a maximum of  110
 All quantities printed in internal units (Hartrees-Bohrs-Radians)
 Mixed Optimization -- RFO/linear search
 Second derivative matrix not updated -- first step.
 ITU=  0
     Eigenvalues ---    0.00230   0.00231   0.00246   0.00607   0.00662
     Eigenvalues ---    0.00896   0.00941   0.01353   0.02005   0.03195
     Eigenvalues ---    0.03367   0.04634   0.04658   0.04709   0.05947
     Eigenvalues ---    0.05955   0.06783   0.07028   0.07325   0.07501
     Eigenvalues ---    0.08715   0.11288   0.11369   0.12494   0.13858
     Eigenvalues ---    0.13914   0.14039   0.16000   0.16000   0.16000
     Eigenvalues ---    0.16000   0.16000   0.16000   0.16000   0.21989
     Eigenvalues ---    0.22000   0.22014   0.22019   0.22716   0.23471
     Eigenvalues ---    0.25000   0.25000   0.28482   0.28579   0.31152
     Eigenvalues ---    0.31564   0.33701   0.33704   0.33829   0.33833
     Eigenvalues ---    0.33883   0.33894   0.33928   0.33953   0.34008
     Eigenvalues ---    0.34022   0.34111   0.34129   0.34344   0.34610
     Eigenvalues ---    0.36944   0.37378   0.75165
 RFO step:  Lambda=-1.29428106D-01 EMin= 2.30000000D-03
 Linear search not attempted -- first point.
 Maximum step size (   0.300) exceeded in Quadratic search.
    -- Step size scaled by   0.522
 Iteration  1 RMS(Cart)=  0.13371012 RMS(Int)=  0.00541998
 Iteration  2 RMS(Cart)=  0.02204732 RMS(Int)=  0.00020988
 Iteration  3 RMS(Cart)=  0.00038549 RMS(Int)=  0.00012852
 Iteration  4 RMS(Cart)=  0.00000003 RMS(Int)=  0.00012852
 Variable       Old X    -DE/DX   Delta X   Delta X   Delta X     New X
                                 (Linear)    (Quad)   (Total)
    R1        2.07620   0.00035   0.00000   0.00039   0.00039   2.07659
    R2        2.07838   0.00148   0.00000   0.00166   0.00166   2.08004
    R3        2.91096   0.00460   0.00000   0.00579   0.00579   2.91675
    R4        2.75931   0.03778   0.00000   0.03955   0.03955   2.79886
    R5        2.07316   0.00086   0.00000   0.00095   0.00095   2.07411
    R6        2.07452   0.00144   0.00000   0.00160   0.00160   2.07612
    R7        2.90890  -0.00077   0.00000  -0.00097  -0.00097   2.90792
    R8        2.07832   0.00374   0.00000   0.00419   0.00419   2.08251
    R9        2.07612   0.00019   0.00000   0.00021   0.00021   2.07633
   R10        2.75280  -0.00720   0.00000  -0.00747  -0.00747   2.74533
   R11        3.03263  -0.11312   0.00000  -0.16224  -0.16224   2.87039
   R12        2.40633  -0.00971   0.00000  -0.00576  -0.00576   2.40057
   R13        2.07114  -0.00667   0.00000  -0.00740  -0.00740   2.06374
   R14        2.85724  -0.00799   0.00000  -0.00946  -0.00946   2.84777
   R15        2.07293   0.00808   0.00000   0.00899   0.00899   2.08192
   R16        2.84949  -0.00980   0.00000  -0.01150  -0.01150   2.83799
   R17        2.07143  -0.00070   0.00000  -0.00078  -0.00078   2.07065
   R18        2.06753   0.00337   0.00000   0.00372   0.00372   2.07125
   R19        2.07409   0.00220   0.00000   0.00245   0.00245   2.07654
   R20        2.07528  -0.00042   0.00000  -0.00046  -0.00046   2.07482
   R21        2.07510  -0.00001   0.00000  -0.00001  -0.00001   2.07509
   R22        2.06312   0.00169   0.00000   0.00186   0.00186   2.06498
    A1        1.86856  -0.00327   0.00000  -0.01002  -0.01006   1.85851
    A2        1.88420  -0.00089   0.00000  -0.00258  -0.00260   1.88160
    A3        1.84930   0.00028   0.00000   0.00163   0.00164   1.85094
    A4        1.91384  -0.00266   0.00000  -0.00476  -0.00480   1.90904
    A5        1.99679   0.00321   0.00000   0.00873   0.00873   2.00552
    A6        1.94524   0.00295   0.00000   0.00589   0.00588   1.95112
    A7        1.89126   0.00059   0.00000   0.00022   0.00021   1.89147
    A8        1.89983   0.00319   0.00000   0.00680   0.00680   1.90662
    A9        2.01557  -0.00364   0.00000  -0.00556  -0.00556   2.01001
   A10        1.86806  -0.00064   0.00000  -0.00060  -0.00060   1.86745
   A11        1.91809   0.00072   0.00000  -0.00005  -0.00005   1.91803
   A12        1.86561  -0.00002   0.00000  -0.00041  -0.00040   1.86521
   A13        1.89409   0.00272   0.00000   0.00495   0.00494   1.89903
   A14        1.89087  -0.00001   0.00000   0.00060   0.00060   1.89147
   A15        1.96108  -0.00099   0.00000  -0.00178  -0.00178   1.95931
   A16        1.86362   0.00026   0.00000   0.00139   0.00139   1.86500
   A17        1.99031  -0.00284   0.00000  -0.00672  -0.00671   1.98360
   A18        1.85878   0.00097   0.00000   0.00191   0.00191   1.86070
   A19        1.50840   0.17142   0.00000   0.23593   0.23593   1.74433
   A20        2.13028  -0.02003   0.00000  -0.02756  -0.02756   2.10271
   A21        1.99341  -0.00745   0.00000  -0.00519  -0.00603   1.98738
   A22        2.00531   0.01462   0.00000   0.02562   0.02503   2.03034
   A23        2.01603   0.00647   0.00000   0.02060   0.02009   2.03612
   A24        2.01313   0.02173   0.00000   0.03496   0.03496   2.04809
   A25        2.28835  -0.02741   0.00000  -0.04096  -0.04096   2.24739
   A26        1.98167   0.00568   0.00000   0.00600   0.00600   1.98767
   A27        1.96231  -0.00833   0.00000  -0.01507  -0.01504   1.94727
   A28        1.92817   0.00352   0.00000   0.00697   0.00697   1.93515
   A29        1.91229   0.00492   0.00000   0.00828   0.00828   1.92056
   A30        1.88647   0.00421   0.00000   0.00866   0.00869   1.89516
   A31        1.88135  -0.00024   0.00000  -0.00161  -0.00159   1.87977
   A32        1.89132  -0.00413   0.00000  -0.00737  -0.00740   1.88392
   A33        1.91463  -0.00059   0.00000  -0.00111  -0.00112   1.91351
   A34        1.90391   0.00043   0.00000   0.00106   0.00106   1.90497
   A35        1.99651  -0.00493   0.00000  -0.00914  -0.00915   1.98736
   A36        1.85860   0.00092   0.00000   0.00220   0.00220   1.86080
   A37        1.89525   0.00218   0.00000   0.00343   0.00342   1.89867
   A38        1.88986   0.00241   0.00000   0.00439   0.00439   1.89426
    D1       -1.41536  -0.00317   0.00000  -0.00856  -0.00855  -1.42391
    D2        0.61041  -0.00189   0.00000  -0.00551  -0.00549   0.60492
    D3        2.70811  -0.00198   0.00000  -0.00468  -0.00467   2.70344
    D4        2.83782   0.00265   0.00000   0.00737   0.00735   2.84517
    D5       -1.41960   0.00393   0.00000   0.01042   0.01041  -1.40919
    D6        0.67811   0.00384   0.00000   0.01125   0.01123   0.68933
    D7        0.60866  -0.00173   0.00000  -0.00488  -0.00488   0.60379
    D8        2.63443  -0.00046   0.00000  -0.00182  -0.00181   2.63262
    D9       -1.55105  -0.00054   0.00000  -0.00100  -0.00100  -1.55204
   D10       -1.67472  -0.00029   0.00000  -0.00205  -0.00204  -1.67676
   D11        0.37953  -0.00234   0.00000  -0.00843  -0.00846   0.37107
   D12        2.56317  -0.00094   0.00000  -0.00302  -0.00300   2.56017
   D13       -3.10852  -0.00259   0.00000  -0.00739  -0.00739  -3.11592
   D14       -1.09126  -0.00086   0.00000  -0.00282  -0.00281  -1.09408
   D15        0.95743  -0.00026   0.00000  -0.00113  -0.00112   0.95631
   D16        1.02909  -0.00127   0.00000  -0.00352  -0.00353   1.02557
   D17        3.04635   0.00046   0.00000   0.00105   0.00105   3.04740
   D18       -1.18813   0.00107   0.00000   0.00274   0.00274  -1.18539
   D19       -0.99225  -0.00087   0.00000  -0.00257  -0.00257  -0.99482
   D20        1.02501   0.00086   0.00000   0.00200   0.00201   1.02702
   D21        3.07371   0.00146   0.00000   0.00369   0.00370   3.07741
   D22        1.88341   0.00119   0.00000   0.00341   0.00342   1.88682
   D23       -0.28132   0.00058   0.00000   0.00352   0.00351  -0.27781
   D24       -2.33208   0.00123   0.00000   0.00435   0.00435  -2.32774
   D25       -1.23798   0.02362   0.00000   0.08508   0.08490  -1.15308
   D26        2.65712   0.00508   0.00000   0.02872   0.02891   2.68602
   D27        0.00962   0.00125   0.00000   0.00393   0.00393   0.01355
   D28        3.14159   0.00122   0.00000   0.00396   0.00396  -3.13764
   D29        0.13747   0.00470   0.00000   0.01835   0.01857   0.15604
   D30        2.24657   0.00689   0.00000   0.02407   0.02426   2.27083
   D31       -1.95414   0.00706   0.00000   0.02449   0.02471  -1.92943
   D32       -2.24069  -0.00805   0.00000  -0.02749  -0.02769  -2.26838
   D33       -0.13159  -0.00586   0.00000  -0.02177  -0.02200  -0.15359
   D34        1.95088  -0.00570   0.00000  -0.02136  -0.02155   1.92934
   D35        2.12898  -0.00070   0.00000  -0.00180  -0.00180   2.12719
   D36       -2.12455   0.00033   0.00000   0.00082   0.00082  -2.12373
   D37       -0.00532   0.00039   0.00000   0.00105   0.00104  -0.00428
   D38       -1.02209  -0.00066   0.00000  -0.00164  -0.00163  -1.02373
   D39        1.00756   0.00037   0.00000   0.00098   0.00098   1.00854
   D40        3.12679   0.00043   0.00000   0.00121   0.00120   3.12799
         Item               Value     Threshold  Converged?
 Maximum Force            0.171417     0.000450     NO 
 RMS     Force            0.021733     0.000300     NO 
 Maximum Displacement     0.493956     0.001800     NO 
 RMS     Displacement     0.151506     0.001200     NO 
 Predicted change in Energy=-5.653772D-02
 GradGradGradGradGradGradGradGradGradGradGradGradGradGradGradGradGradGrad

                          Input orientation:                          
 ---------------------------------------------------------------------
 Center     Atomic      Atomic             Coordinates (Angstroms)
 Number     Number       Type             X           Y           Z
 ---------------------------------------------------------------------
      1          6           0       -2.381546    0.238967    1.012855
      2          1           0       -3.274974    0.632490    0.508399
      3          1           0       -1.684917   -0.069837    0.218559
      4          6           0       -2.807736   -0.999068    1.830140
      5          1           0       -3.240253   -0.655399    2.778554
      6          1           0       -3.601315   -1.533650    1.290278
      7          6           0       -1.688729   -2.019213    2.104100
      8          1           0       -2.110981   -2.866959    2.667543
      9          1           0       -1.340590   -2.418281    1.141400
     10          7           0       -1.889314    1.330471    1.884615
     11          7           0       -0.534479   -1.411494    2.743564
     12          6           0       -0.833361    1.935877    0.975964
     13          1           0        0.012475    1.273735    0.779061
     14          6           0       -0.277720   -1.644832    3.965596
     15          1           0       -0.953662   -2.328897    4.503098
     16          6           0       -0.514764    3.391820    1.198913
     17          1           0       -0.992540    3.774141    2.107876
     18          1           0        0.567160    3.546710    1.281349
     19          1           0       -0.878952    3.990844    0.352731
     20          6           0        0.849957   -1.118989    4.806566
     21          1           0        0.444083   -0.585981    5.676425
     22          1           0        1.430914   -1.964082    5.199135
     23          1           0        1.527888   -0.451128    4.269486
 ---------------------------------------------------------------------
                    Distance matrix (angstroms):
                    1          2          3          4          5
     1  C    0.000000
     2  H    1.098886   0.000000
     3  H    1.100708   1.762258   0.000000
     4  C    1.543478   2.151114   2.172875   0.000000
     5  H    2.157536   2.610262   3.052135   1.097574   0.000000
     6  H    2.169556   2.325940   2.638922   1.098634   1.765406
     7  C    2.601959   3.477638   2.712074   1.538807   2.173040
     8  H    3.529586   4.273515   3.742052   2.162344   2.485674
     9  H    2.856761   3.667388   2.546642   2.154309   3.065411
    10  N    1.481093   2.073933   2.185951   2.504639   2.562780
    11  N    3.021759   4.084622   3.082077   2.484378   2.809646
    12  C    2.297333   2.806939   2.306880   3.638911   3.969530
    13  H    2.618538   3.360324   2.236177   3.771470   4.277823
    14  C    4.085763   5.110962   4.301290   3.373153   3.341354
    15  H    4.562299   5.487798   4.898506   3.514362   3.317098
    16  C    3.668783   3.963518   3.783308   4.993602   5.128698
    17  H    3.952956   4.199739   4.338787   5.114254   5.012270
    18  H    4.439382   4.883863   4.390989   5.688162   5.864788
    19  H    4.095135   4.128402   4.142067   5.549970   5.748734
    20  C    5.165161   6.209426   5.345663   4.717225   4.588852
    21  H    5.514852   6.482634   5.881100   5.053600   4.687942
    22  H    6.075624   7.133763   6.172739   5.499776   5.421408
    23  H    5.134739   6.195764   5.184353   5.004826   4.999977
                    6          7          8          9         10
     6  H    0.000000
     7  C    2.134493   0.000000
     8  H    2.428099   1.102016   0.000000
     9  H    2.432203   1.098748   1.767464   0.000000
    10  N    3.389302   3.362854   4.275574   3.860907   0.000000
    11  N    3.395944   1.452766   2.146979   2.056785   3.176750
    12  C    4.449492   4.200843   5.249856   4.386723   1.518947
    13  H    4.604588   3.936157   5.022030   3.948804   2.200516
    14  C    4.268017   2.365645   2.557222   3.115124   3.972423
    15  H    4.238478   2.528126   2.235656   3.385072   4.595963
    16  C    5.813381   5.610422   6.623980   5.868779   2.570746
    17  H    5.970496   5.835036   6.757837   6.277046   2.612580
    18  H    6.571630   6.061803   7.087251   6.264201   3.363021
    19  H    6.229791   6.312196   7.342052   6.473948   3.231886
    20  C    5.687710   3.815580   4.049441   4.463193   4.694812
    21  H    6.041655   4.400516   4.559011   5.206614   4.847200
    22  H    6.386529   4.394821   4.446253   4.934850   5.732717
    23  H    6.029615   4.182633   4.652294   4.677903   4.531995
                   11         12         13         14         15
    11  N    0.000000
    12  C    3.797187   0.000000
    13  H    3.371777   1.092082   0.000000
    14  C    1.270329   4.697671   4.330848   0.000000
    15  H    2.028129   5.535652   5.270753   1.101705   0.000000
    16  C    5.045608   1.506978   2.222733   5.751399   6.620943
    17  H    5.244495   2.164666   3.004636   5.772985   6.556347
    18  H    5.285401   2.156271   2.392987   5.905176   6.871341
    19  H    5.917770   2.147880   2.891208   6.721244   7.561102
    20  C    2.501640   5.180664   4.758918   1.501798   2.192947
    21  H    3.200114   5.485067   5.256329   2.137545   2.523518
    22  H    3.193424   6.178333   5.659724   2.131424   2.510730
    23  H    2.739362   4.703252   4.177882   2.185749   3.120687
                   16         17         18         19         20
    16  C    0.000000
    17  H    1.095743   0.000000
    18  H    1.096059   1.779756   0.000000
    19  H    1.098857   1.772116   1.775057   0.000000
    20  C    5.935067   5.883914   5.854559   6.995439   0.000000
    21  H    6.065509   5.814559   6.034150   7.144191   1.097946
    22  H    6.962265   6.953864   6.816446   8.017747   1.098091
    23  H    5.326265   5.373827   5.082781   6.392571   1.092741
                   21         22         23
    21  H    0.000000
    22  H    1.760910   0.000000
    23  H    1.781094   1.778393   0.000000
 Stoichiometry    C7H14N2
 Framework group  C1[X(C7H14N2)]
 Deg. of freedom    63
 Full point group                 C1      NOp   1
 Largest Abelian subgroup         C1      NOp   1
 Largest concise Abelian subgroup C1      NOp   1
                         Standard orientation:                         
 ---------------------------------------------------------------------
 Center     Atomic      Atomic             Coordinates (Angstroms)
 Number     Number       Type             X           Y           Z
 ---------------------------------------------------------------------
      1          6           0       -1.121523   -1.446616   -0.004513
      2          1           0       -1.868104   -2.177912    0.335155
      3          1           0       -1.179864   -1.428181   -1.103519
      4          6           0        0.269782   -1.957728    0.426021
      5          1           0        0.426868   -1.688419    1.478383
      6          1           0        0.285944   -3.054783    0.369398
      7          6           0        1.446095   -1.449261   -0.425845
      8          1           0        2.379041   -1.896383   -0.046197
      9          1           0        1.312850   -1.814556   -1.453489
     10          7           0       -1.467799   -0.169080    0.660040
     11          7           0        1.483797    0.001005   -0.502238
     12          6           0       -2.281609    0.487502   -0.441692
     13          1           0       -1.700707    0.734362   -1.332902
     14          6           0        2.379798    0.655685    0.116074
     15          1           0        3.121348    0.079106    0.691760
     16          6           0       -3.308166    1.499323   -0.001941
     17          1           0       -3.211844    1.733713    1.064096
     18          1           0       -3.210372    2.428979   -0.574237
     19          1           0       -4.320424    1.104989   -0.167224
     20          6           0        2.589504    2.141768    0.170625
     21          1           0        2.552472    2.481558    1.214012
     22          1           0        3.595643    2.377390   -0.200819
     23          1           0        1.861876    2.712629   -0.411404
 ---------------------------------------------------------------------
 Rotational constants (GHZ):           1.8654093           0.9017155           0.6519107
 Standard basis: 6-31G(d) (6D, 7F)
 There are   163 symmetry adapted cartesian basis functions of A   symmetry.
 There are   163 symmetry adapted basis functions of A   symmetry.
   163 basis functions,   308 primitive gaussians,   163 cartesian basis functions
    35 alpha electrons       35 beta electrons
       nuclear repulsion energy       431.7397618237 Hartrees.
 NAtoms=   23 NActive=   23 NUniq=   23 SFac= 1.00D+00 NAtFMM=   60 NAOKFM=F Big=F
 Integral buffers will be    131072 words long.
 Raffenetti 2 integral format.
 Two-electron integral symmetry is turned on.
 ------------------------------------------------------------------------------
 Polarizable Continuum Model (PCM)
 =================================
 Model                : PCM.
 Atomic radii         : SMD-Coulomb.
 Polarization charges : Total charges.
 Charge compensation  : None.
 Solution method      : On-the-fly selection.
 Cavity type          : VdW (van der Waals Surface) (Alpha=1.000).
 Cavity algorithm     : GePol (No added spheres)
                        Default sphere list used, NSphG=   23.
                        Lebedev-Laikov grids with approx.  5.0 points / Ang**2.
                        Smoothing algorithm: York/Karplus (Gamma=1.0000).
                        Polarization charges: spherical gaussians, with
                                              point-specific exponents (IZeta= 3).
                        Self-potential: point-specific (ISelfS= 7).
                        Self-field    : sphere-specific E.n sum rule (ISelfD= 2).
 1st derivatives      : Analytical E(r).r(x)/FMM algorithm (CHGder, D1EAlg=3).
                        Cavity 1st derivative terms included.
 Solvent              : Toluene, Eps=   2.374100 Eps(inf)=   2.238315
 ------------------------------------------------------------------------------
 ------------------------------------------------------------------------------
 Atomic radii for non-electrostatic terms: SMD-CDS.
 ------------------------------------------------------------------------------
 Nuclear repulsion after PCM non-electrostatic terms =      431.7358276108 Hartrees.
 One-electron integrals computed using PRISM.
 NBasis=   163 RedAO= T EigKep=  4.21D-03  NBF=   163
 NBsUse=   163 1.00D-06 EigRej= -1.00D+00 NBFU=   163
 Initial guess from the checkpoint file:  "/home/rtong2/g16/093021/CH2CH2NCHCH3.chk"
 B after Tr=     0.000000    0.000000    0.000000
         Rot=    0.999687   -0.001992    0.003489   -0.024685 Ang=  -2.87 deg.
 ExpMin= 1.61D-01 ExpMax= 4.17D+03 ExpMxC= 6.27D+02 IAcc=3 IRadAn=         5 AccDes= 0.00D+00
 Harris functional with IExCor=  402 and IRadAn=       5 diagonalized for initial guess.
 HarFok:  IExCor=  402 AccDes= 0.00D+00 IRadAn=         5 IDoV= 1 UseB2=F ITyADJ=14
 ICtDFT=  3500011 ScaDFX=  1.000000  1.000000  1.000000  1.000000
 FoFCou: FMM=F IPFlag=           0 FMFlag=      100000 FMFlg1=           0
         NFxFlg=           0 DoJE=T BraDBF=F KetDBF=T FulRan=T
         wScrn=  0.000000 ICntrl=       500 IOpCl=  0 I1Cent=   200000004 NGrid=           0
         NMat0=    1 NMatS0=      1 NMatT0=    0 NMatD0=    1 NMtDS0=    0 NMtDT0=    0
 Petite list used in FoFCou.
 Requested convergence on RMS density matrix=1.00D-08 within 128 cycles.
 Requested convergence on MAX density matrix=1.00D-06.
 Requested convergence on             energy=1.00D-06.
 No special actions if energy rises.
 Inv3:  Mode=1 IEnd=     8968323.
 Iteration    1 A*A^-1 deviation from unit magnitude is 5.33D-15 for   1729.
 Iteration    1 A*A^-1 deviation from orthogonality  is 1.85D-15 for    790     80.
 Iteration    1 A^-1*A deviation from unit magnitude is 5.55D-15 for   1729.
 Iteration    1 A^-1*A deviation from orthogonality  is 2.08D-14 for    816    790.
 Error on total polarization charges =  0.02719
 SCF Done:  E(RB3LYP) =  -384.565575947     A.U. after   12 cycles
            NFock= 12  Conv=0.56D-08     -V/T= 2.0108
 SMD-CDS (non-electrostatic) energy       (kcal/mol) =      -2.47
 (included in total energy above)
 D1PCM: PCM CHGder 1st derivatives, ID1Alg=3 FixD1E=F DoIter=F DoCFld=F I1PDM=0.
 Calling FoFJK, ICntrl=      2127 FMM=F ISym2X=0 I1Cent= 0 IOpClX= 0 NMat=1 NMatS=1 NMatT=0.
 ***** Axes restored to original set *****
 -------------------------------------------------------------------
 Center     Atomic                   Forces (Hartrees/Bohr)
 Number     Number              X              Y              Z
 -------------------------------------------------------------------
      1        6          -0.004942778   -0.025072299    0.028647274
      2        1           0.000889243    0.001399832   -0.000160704
      3        1           0.001351494    0.002635084   -0.001453807
      4        6          -0.001264613    0.000024644   -0.003324548
      5        1           0.000124090   -0.000313578    0.000446516
      6        1          -0.000318540   -0.000400365    0.000495074
      7        6           0.001328204    0.001859702   -0.000123094
      8        1           0.000751257   -0.000631761    0.003776277
      9        1          -0.000453977   -0.000483649   -0.000183653
     10        7           0.076664482    0.054211528   -0.124458160
     11        7           0.013955319    0.012289621   -0.000128431
     12        6          -0.061743276   -0.019415155    0.131250450
     13        1          -0.012418271   -0.006567649   -0.026553704
     14        6          -0.014235403   -0.010939244   -0.000839664
     15        1           0.000327655   -0.002475054    0.005907982
     16        6           0.003167482   -0.009150720   -0.001375318
     17        1          -0.003526068   -0.002129304   -0.001155127
     18        1           0.001402718    0.002161446   -0.002307605
     19        1           0.000736649    0.001340902   -0.000485539
     20        6          -0.000144130    0.001167386   -0.005168153
     21        1          -0.000224813    0.000033819   -0.000195618
     22        1           0.000009649   -0.000065441    0.000281591
     23        1          -0.001436375    0.000520256   -0.002892040
 -------------------------------------------------------------------
 Cartesian Forces:  Max     0.131250450 RMS     0.026654984

 GradGradGradGradGradGradGradGradGradGradGradGradGradGradGradGradGradGrad
 Berny optimization.
 Using GEDIIS/GDIIS optimizer.
 FormGI is forming the generalized inverse of G from B-inverse, IUseBI=4.
 Internal  Forces:  Max     0.123230601 RMS     0.014965897
 Search for a local minimum.
 Step number   2 out of a maximum of  110
 All quantities printed in internal units (Hartrees-Bohrs-Radians)
 Mixed Optimization -- RFO/linear search
 Update second derivatives using D2CorX and points    1    2
 DE= -5.43D-02 DEPred=-5.65D-02 R= 9.61D-01
 TightC=F SS=  1.41D+00  RLast= 3.19D-01 DXNew= 5.0454D-01 9.5748D-01
 Trust test= 9.61D-01 RLast= 3.19D-01 DXMaxT set to 5.05D-01
 ITU=  1  0
 Use linear search instead of GDIIS.
 Linear search step of   0.600 exceeds DXMaxT=   0.505 but not scaled.
 Quartic linear search produced a step of  2.00000.
 Iteration  1 RMS(Cart)=  0.13193174 RMS(Int)=  0.03117819
 Iteration  2 RMS(Cart)=  0.12399361 RMS(Int)=  0.00831894
 Iteration  3 RMS(Cart)=  0.03915694 RMS(Int)=  0.00092874
 Iteration  4 RMS(Cart)=  0.00119057 RMS(Int)=  0.00073395
 Iteration  5 RMS(Cart)=  0.00000066 RMS(Int)=  0.00073395
 Variable       Old X    -DE/DX   Delta X   Delta X   Delta X     New X
                                 (Linear)    (Quad)   (Total)
    R1        2.07659  -0.00015   0.00078   0.00000   0.00078   2.07738
    R2        2.08004   0.00116   0.00331   0.00000   0.00331   2.08335
    R3        2.91675  -0.00107   0.01159   0.00000   0.01159   2.92834
    R4        2.79886   0.00173   0.07909   0.00000   0.07909   2.87795
    R5        2.07411   0.00024   0.00191   0.00000   0.00191   2.07602
    R6        2.07612   0.00018   0.00320   0.00000   0.00320   2.07932
    R7        2.90792  -0.00085  -0.00195   0.00000  -0.00195   2.90598
    R8        2.08251   0.00213   0.00838   0.00000   0.00838   2.09089
    R9        2.07633   0.00019   0.00042   0.00000   0.00042   2.07675
   R10        2.74533  -0.00250  -0.01495   0.00000  -0.01495   2.73038
   R11        2.87039  -0.12323  -0.32448   0.00000  -0.32448   2.54591
   R12        2.40057  -0.00381  -0.01151   0.00000  -0.01151   2.38906
   R13        2.06374  -0.00085  -0.01480   0.00000  -0.01480   2.04893
   R14        2.84777  -0.00792  -0.01892   0.00000  -0.01892   2.82885
   R15        2.08192   0.00422   0.01798   0.00000   0.01798   2.09990
   R16        2.83799  -0.00523  -0.02300   0.00000  -0.02300   2.81498
   R17        2.07065  -0.00016  -0.00156   0.00000  -0.00156   2.06910
   R18        2.07125   0.00151   0.00744   0.00000   0.00744   2.07869
   R19        2.07654   0.00086   0.00490   0.00000   0.00490   2.08144
   R20        2.07482  -0.00006  -0.00093   0.00000  -0.00093   2.07389
   R21        2.07509   0.00016  -0.00001   0.00000  -0.00001   2.07508
   R22        2.06498   0.00085   0.00372   0.00000   0.00372   2.06870
    A1        1.85851  -0.00069  -0.02011   0.00000  -0.02030   1.83820
    A2        1.88160   0.00083  -0.00520   0.00000  -0.00532   1.87628
    A3        1.85094  -0.00162   0.00327   0.00000   0.00332   1.85426
    A4        1.90904   0.00164  -0.00960   0.00000  -0.00986   1.89918
    A5        2.00552  -0.00360   0.01746   0.00000   0.01745   2.02297
    A6        1.95112   0.00336   0.01176   0.00000   0.01168   1.96280
    A7        1.89147   0.00110   0.00041   0.00000   0.00034   1.89181
    A8        1.90662   0.00149   0.01359   0.00000   0.01359   1.92022
    A9        2.01001  -0.00324  -0.01112   0.00000  -0.01113   1.99889
   A10        1.86745  -0.00060  -0.00121   0.00000  -0.00124   1.86621
   A11        1.91803   0.00020  -0.00011   0.00000  -0.00015   1.91789
   A12        1.86521   0.00120  -0.00080   0.00000  -0.00073   1.86448
   A13        1.89903   0.00192   0.00988   0.00000   0.00984   1.90887
   A14        1.89147  -0.00027   0.00119   0.00000   0.00117   1.89264
   A15        1.95931  -0.00111  -0.00356   0.00000  -0.00356   1.95575
   A16        1.86500   0.00030   0.00277   0.00000   0.00273   1.86773
   A17        1.98360  -0.00211  -0.01343   0.00000  -0.01340   1.97020
   A18        1.86070   0.00136   0.00383   0.00000   0.00384   1.86454
   A19        1.74433   0.06516   0.47186   0.00000   0.47186   2.21620
   A20        2.10271  -0.01195  -0.05513   0.00000  -0.05513   2.04759
   A21        1.98738  -0.00023  -0.01206   0.00000  -0.01667   1.97070
   A22        2.03034   0.00487   0.05007   0.00000   0.04653   2.07688
   A23        2.03612   0.00631   0.04018   0.00000   0.03711   2.07323
   A24        2.04809   0.01489   0.06992   0.00000   0.06992   2.11801
   A25        2.24739  -0.01977  -0.08193   0.00000  -0.08193   2.16546
   A26        1.98767   0.00489   0.01201   0.00000   0.01201   1.99968
   A27        1.94727  -0.00499  -0.03008   0.00000  -0.02994   1.91733
   A28        1.93515   0.00349   0.01395   0.00000   0.01395   1.94910
   A29        1.92056   0.00119   0.01655   0.00000   0.01652   1.93708
   A30        1.89516   0.00264   0.01738   0.00000   0.01755   1.91271
   A31        1.87977   0.00016  -0.00318   0.00000  -0.00308   1.87669
   A32        1.88392  -0.00251  -0.01480   0.00000  -0.01496   1.86896
   A33        1.91351   0.00039  -0.00223   0.00000  -0.00229   1.91123
   A34        1.90497   0.00124   0.00211   0.00000   0.00211   1.90707
   A35        1.98736  -0.00472  -0.01830   0.00000  -0.01835   1.96900
   A36        1.86080   0.00012   0.00440   0.00000   0.00440   1.86519
   A37        1.89867   0.00153   0.00684   0.00000   0.00675   1.90542
   A38        1.89426   0.00173   0.00879   0.00000   0.00878   1.90303
    D1       -1.42391  -0.00029  -0.01710   0.00000  -0.01702  -1.44094
    D2        0.60492   0.00042  -0.01097   0.00000  -0.01086   0.59406
    D3        2.70344   0.00089  -0.00934   0.00000  -0.00929   2.69415
    D4        2.84517  -0.00078   0.01470   0.00000   0.01460   2.85977
    D5       -1.40919  -0.00007   0.02083   0.00000   0.02077  -1.38842
    D6        0.68933   0.00040   0.02246   0.00000   0.02234   0.71167
    D7        0.60379   0.00011  -0.00975   0.00000  -0.00974   0.59405
    D8        2.63262   0.00082  -0.00363   0.00000  -0.00358   2.62904
    D9       -1.55204   0.00129  -0.00200   0.00000  -0.00201  -1.55406
   D10       -1.67676   0.00145  -0.00408   0.00000  -0.00401  -1.68078
   D11        0.37107  -0.00252  -0.01693   0.00000  -0.01712   0.35395
   D12        2.56017  -0.00035  -0.00599   0.00000  -0.00587   2.55430
   D13       -3.11592  -0.00169  -0.01478   0.00000  -0.01481  -3.13073
   D14       -1.09408  -0.00046  -0.00563   0.00000  -0.00561  -1.09969
   D15        0.95631   0.00039  -0.00225   0.00000  -0.00224   0.95407
   D16        1.02557  -0.00094  -0.00706   0.00000  -0.00710   1.01847
   D17        3.04740   0.00030   0.00210   0.00000   0.00210   3.04951
   D18       -1.18539   0.00115   0.00548   0.00000   0.00548  -1.17992
   D19       -0.99482  -0.00100  -0.00514   0.00000  -0.00516  -0.99998
   D20        1.02702   0.00024   0.00402   0.00000   0.00404   1.03106
   D21        3.07741   0.00109   0.00740   0.00000   0.00742   3.08482
   D22        1.88682   0.00108   0.00683   0.00000   0.00687   1.89369
   D23       -0.27781   0.00105   0.00702   0.00000   0.00698  -0.27083
   D24       -2.32774   0.00098   0.00870   0.00000   0.00870  -2.31903
   D25       -1.15308   0.03432   0.16980   0.00000   0.16852  -0.98456
   D26        2.68602   0.01768   0.05781   0.00000   0.05910   2.74512
   D27        0.01355   0.00116   0.00787   0.00000   0.00788   0.02143
   D28       -3.13764   0.00116   0.00791   0.00000   0.00790  -3.12974
   D29        0.15604   0.00540   0.03713   0.00000   0.03824   0.19428
   D30        2.27083   0.00776   0.04851   0.00000   0.04947   2.32030
   D31       -1.92943   0.00762   0.04942   0.00000   0.05061  -1.87882
   D32       -2.26838  -0.00906  -0.05539   0.00000  -0.05645  -2.32483
   D33       -0.15359  -0.00670  -0.04400   0.00000  -0.04522  -0.19881
   D34        1.92934  -0.00685  -0.04309   0.00000  -0.04407   1.88526
   D35        2.12719  -0.00070  -0.00359   0.00000  -0.00356   2.12363
   D36       -2.12373   0.00038   0.00165   0.00000   0.00164  -2.12209
   D37       -0.00428   0.00032   0.00208   0.00000   0.00205  -0.00223
   D38       -1.02373  -0.00064  -0.00327   0.00000  -0.00323  -1.02696
   D39        1.00854   0.00043   0.00197   0.00000   0.00197   1.01051
   D40        3.12799   0.00037   0.00240   0.00000   0.00238   3.13037
         Item               Value     Threshold  Converged?
 Maximum Force            0.123231     0.000450     NO 
 RMS     Force            0.014966     0.000300     NO 
 Maximum Displacement     0.955027     0.001800     NO 
 RMS     Displacement     0.275958     0.001200     NO 
 Predicted change in Energy=-3.429205D-02
 GradGradGradGradGradGradGradGradGradGradGradGradGradGradGradGradGradGrad

                          Input orientation:                          
 ---------------------------------------------------------------------
 Center     Atomic      Atomic             Coordinates (Angstroms)
 Number     Number       Type             X           Y           Z
 ---------------------------------------------------------------------
      1          6           0       -2.345743    0.043749    0.797928
      2          1           0       -3.226361    0.424810    0.261490
      3          1           0       -1.735575   -0.463766    0.032719
      4          6           0       -2.842506   -1.009415    1.820356
      5          1           0       -3.192234   -0.482444    2.718619
      6          1           0       -3.707025   -1.553278    1.411037
      7          6           0       -1.794885   -2.066137    2.208414
      8          1           0       -2.240649   -2.777375    2.929291
      9          1           0       -1.532077   -2.641489    1.309730
     10          7           0       -1.702104    1.249098    1.470405
     11          7           0       -0.573094   -1.466368    2.693301
     12          6           0       -0.674715    1.984939    1.003430
     13          1           0        0.209015    1.392103    0.795675
     14          6           0       -0.328036   -1.567243    3.929449
     15          1           0       -1.014041   -2.113177    4.612207
     16          6           0       -0.502164    3.386988    1.498796
     17          1           0       -1.160863    3.562364    2.355655
     18          1           0        0.539729    3.590815    1.786728
     19          1           0       -0.771019    4.116821    0.718889
     20          6           0        0.877374   -0.993981    4.590765
     21          1           0        0.566140   -0.297194    5.379454
     22          1           0        1.439365   -1.799876    5.081162
     23          1           0        1.538114   -0.472702    3.890707
 ---------------------------------------------------------------------
                    Distance matrix (angstroms):
                    1          2          3          4          5
     1  C    0.000000
     2  H    1.099300   0.000000
     3  H    1.102462   1.750528   0.000000
     4  C    1.549609   2.152767   2.172251   0.000000
     5  H    2.163904   2.619495   3.055531   1.098583   0.000000
     6  H    2.186204   2.337804   2.640723   1.100329   1.766767
     7  C    2.597025   3.470512   2.702732   1.537777   2.172780
     8  H    3.537301   4.282847   3.741393   2.172016   2.493312
     9  H    2.852105   3.656719   2.532716   2.154444   3.066360
    10  N    1.522946   2.112886   2.236508   2.554185   2.603222
    11  N    3.002528   4.065720   3.071688   2.474079   2.797971
    12  C    2.569588   3.081457   2.839694   3.785874   3.920173
    13  H    2.888746   3.608714   2.794240   4.016097   4.333606
    14  C    4.058678   5.081583   4.287579   3.328964   3.293407
    15  H    4.579792   5.501316   4.920659   3.515112   3.315041
    16  C    3.881655   4.210306   4.301046   4.990888   4.867952
    17  H    4.026302   4.300704   4.683594   4.900574   4.540781
    18  H    4.678178   5.151056   4.969224   5.709883   5.602447
    19  H    4.367598   4.457451   4.731065   5.637604   5.569061
    20  C    5.084386   6.131576   5.280569   4.638201   4.508692
    21  H    5.439273   6.410765   5.823505   4.979288   4.608659
    22  H    6.006005   7.067352   6.111645   5.439862   5.363669
    23  H    4.991628   6.056151   5.059762   4.874858   4.873405
                    6          7          8          9         10
     6  H    0.000000
     7  C    2.134271   0.000000
     8  H    2.440035   1.106449   0.000000
     9  H    2.434105   1.098969   1.772996   0.000000
    10  N    3.446236   3.397653   4.316349   3.897614   0.000000
    11  N    3.387223   1.444857   2.134285   2.053004   3.184947
[...]
 7,0.00013595,-0.00073520,0.00050784,-0.00013516,-0.01449707,-0.0034288
 0,-0.01863851,-0.00218987,0.00074421,-0.00657531,-0.00225967,-0.001593
 20,-0.00308451,0.00007947,-0.00004572,-0.00000405,0.01444373,-0.113986
 29,0.15222617,0.00007082,0.00021980,0.00013568,0.00003260,-0.00003171,
 -0.00005996,0.16509852,0.42358960,-0.00043429,0.00023217,-0.00092607,0
 .00012207,-0.00010978,0.00006638,-0.00004988,0.00000270,-0.00002364,0.
 00283467,-0.00127553,0.00120288,-0.00080453,0.00023161,-0.00011718,0.0
 0058740,0.00002963,0.00098746,-0.01321097,0.00856206,-0.04108408,0.006
 77846,0.00417194,0.00504204,-0.00150833,0.00023800,0.00139476,-0.00023
 043,-0.00089402,0.00062179,-0.15088862,0.11291916,-0.56618422,0.000737
 82,0.00040774,0.00006001,-0.00010699,0.00004570,-0.00018791,0.16773186
 ,-0.16479361,0.82411937,-0.00019876,-0.00004623,-0.00028200,0.00002285
 ,0.00006821,0.00001878,-0.00003087,0.00003281,0.00002270,-0.00033504,-
 0.00038099,-0.00055223,-0.00004351,-0.00005922,-0.00000260,-0.00010141
 ,0.00012971,-0.00003006,-0.00215423,0.00887704,-0.00111906,0.00047369,
 0.00024139,0.00163504,0.00035942,-0.00006294,0.00065598,-0.00009478,-0
 .00025502,0.00023753,0.01782016,-0.00779857,-0.00761932,0.00029393,-0.
 00011590,-0.00004254,-0.00004270,0.00002768,-0.00001765,-0.11513519,-0
 .08709343,0.04862784,0.10621753,-0.00010150,0.00006305,-0.00003340,0.0
 0001561,-0.00001990,0.00000575,0.00000280,0.00000326,-0.00003285,0.000
 41566,0.00064718,0.00064607,0.00014605,-0.00008324,0.00003487,0.000275
 56,-0.00026481,0.00008259,0.00452359,-0.00157551,-0.00708705,0.0016417
 2,0.00052469,0.00106841,-0.00041030,0.00013316,-0.00078393,0.00004802,
 -0.00001730,-0.00011520,-0.01567067,0.00228341,0.02168054,-0.00013813,
 0.00002654,0.00003903,0.00002869,-0.00000984,-0.00005674,-0.08633606,-
 0.17779457,0.07464419,0.10620113,0.18160350,0.00030839,-0.00003059,0.0
 0019880,-0.00004168,-0.00001041,0.00000837,-0.00001842,-0.00001711,0.0
 0006011,0.00012744,-0.00011623,0.00039655,-0.00000076,0.00007394,0.000
 01389,-0.00007926,-0.00002149,-0.00002937,0.00773708,0.00210085,0.0015
 7411,-0.00140203,-0.00241881,0.00086995,-0.00032385,-0.00035284,-0.000
 15505,0.00002904,0.00034849,-0.00026121,0.00583358,0.03527603,-0.02843
 933,-0.00034080,-0.00016512,0.00002440,0.00002292,-0.00001072,0.000079
 19,0.04790921,0.07363250,-0.10317699,-0.04927916,-0.09763198,0.1195389
 6,0.00422575,-0.00388652,0.00783063,0.00018402,0.00058520,-0.00016859,
 0.00004425,-0.00093085,-0.00088581,-0.00110896,-0.00139898,-0.00207145
 ,0.00003957,0.00020296,0.00002472,-0.00019883,-0.00070610,0.00054566,-
 0.00035451,0.00006614,0.00004813,0.00014801,-0.00005822,0.00007757,0.0
 0002014,-0.00002440,-0.00002295,-0.02663719,-0.03334840,-0.01350386,0.
 00000129,-0.00003942,-0.00008633,-0.09901920,-0.03805151,-0.01638664,0
 .00931167,0.01184481,0.00859493,0.00006899,0.00008318,0.00000898,-0.00
 001503,-0.00002176,-0.00003112,0.55975922,-0.00361920,0.00849967,-0.00
 644575,-0.00131877,-0.00184748,-0.00062251,-0.00015973,-0.00002152,0.0
 0012449,0.00063082,0.00083520,0.00109310,0.00005737,-0.00005647,0.0000
 3393,0.00010015,0.00027530,-0.00024107,0.00004799,0.00011032,-0.000003
 55,-0.00002061,0.00001287,-0.00001847,0.00000498,0.00000485,-0.0000140
 7,-0.01844498,-0.01841413,0.00198821,-0.00003431,0.00001972,-0.0000201
 6,-0.04045888,-0.17551396,-0.05871288,-0.00735569,-0.00613018,-0.00571
 827,-0.00001284,0.00000240,-0.00001131,0.00001893,0.00002243,0.0000009
 3,-0.02167366,0.51608160,0.00793130,-0.00609227,0.00745612,0.00112246,
 0.00222222,0.00108178,-0.00009209,0.00047846,0.00045885,-0.00107737,-0
 .00075555,-0.00065196,-0.00007608,-0.00006755,0.00001369,-0.00010152,-
 0.00018547,0.00019497,0.00000541,-0.00007933,-0.00021299,0.00000635,0.
 00007037,0.00001468,0.00000554,0.00002407,0.00004232,-0.00088939,0.013
 38216,0.00761292,-0.00018935,0.00021829,0.00003313,-0.01838349,-0.0608
 6143,-0.11670551,-0.00866535,-0.01998379,-0.00526811,0.00008343,0.0000
 1777,0.00009157,0.00004732,-0.00001090,-0.00005495,-0.03809397,-0.0048
 1560,0.56031002,-0.00013254,-0.00030848,-0.00038081,0.00001150,0.00001
 584,0.00002146,-0.00024362,0.00006274,0.00023705,0.00000341,0.00006328
 ,0.00012015,-0.00000365,-0.00002511,0.00002274,0.00000243,0.00004188,-
 0.00002788,0.00002481,0.00000766,0.00001611,-0.00001209,0.00000582,-0.
 00000750,-0.00000816,-0.00000801,-0.00000832,0.00086232,0.00104279,-0.
 00050317,0.00001056,0.00000603,-0.00005693,0.00976955,-0.00535633,-0.0
 1236460,-0.00051782,-0.00276793,-0.00048287,0.00002901,0.00001609,0.00
 003546,-0.00000886,0.00000410,-0.00000276,-0.14086865,0.05770544,0.116
 65189,0.14772247,-0.00042692,-0.00009894,0.00029340,-0.00005241,-0.000
 01204,0.00003004,-0.00005260,0.00034349,0.00036351,0.00001004,0.000020
 23,-0.00000383,-0.00003192,-0.00004385,0.00002865,-0.00000189,-0.00000
 398,0.00000485,-0.00000628,-0.00002950,-0.00004392,0.00001325,-0.00000
 017,0.00001207,0.00000110,0.00002334,0.00001667,0.00160995,0.00290868,
 0.00187472,-0.00001749,0.00003340,0.00009045,0.01882730,-0.01091004,-0
 .02249643,-0.00326555,-0.00314243,-0.00233716,-0.00003390,-0.00005398,
 -0.00000707,0.00001676,-0.00000880,0.00000465,0.05469769,-0.08468620,-
 0.06954797,-0.06032326,0.08849833,-0.00041951,0.00033166,0.00032599,-0
 .00004580,-0.00009406,-0.00006307,0.00015973,0.00025875,0.00012651,-0.
 00001384,0.00002322,0.00000621,-0.00000237,-0.00002042,0.00001455,-0.0
 0000712,-0.00002110,-0.00000418,0.00001660,0.00001666,-0.00001154,0.00
 000158,-0.00001066,0.00001460,-0.00000002,0.00001058,0.00000337,0.0001
 8284,0.00253784,0.00113770,0.00000662,-0.00002439,0.00004252,0.0089156
 1,-0.00532932,-0.01201741,-0.00095573,-0.00278039,0.00037851,-0.000012
 73,0.00000474,-0.00003484,-0.00000496,-0.00000819,0.00001216,0.1139948
 7,-0.07161837,-0.19644978,-0.12615006,0.08027277,0.20965302,0.00066849
 ,-0.00125467,0.00110329,0.00008482,0.00017317,0.00004644,0.00000911,-0
 .00017544,-0.00012768,-0.00014733,-0.00007770,-0.00045284,-0.00000347,
 0.00002562,0.00002712,-0.00000908,-0.00013348,0.00012171,-0.00015749,-
 0.00003970,-0.00008873,0.00007957,-0.00000236,0.00003722,0.00001605,0.
 00002306,0.00001352,-0.00060104,-0.00092162,-0.00304679,0.00018717,0.0
 0004931,0.00015438,-0.01396260,0.00119977,-0.00288542,0.00054683,-0.00
 076350,-0.00002216,-0.00008089,-0.00007779,-0.00003388,0.00003017,0.00
 003220,0.00000196,-0.25707471,0.05876402,-0.08587943,-0.01439170,0.003
 54115,-0.00727853,0.27989513,0.00097097,-0.00192405,0.00247410,0.00015
 275,0.00026435,0.00001462,0.00002738,-0.00014646,-0.00017447,-0.000313
 93,-0.00036634,-0.00071338,0.00001118,0.00004893,0.00001260,-0.0000554
 1,-0.00026068,0.00017118,-0.00022044,0.00000239,-0.00010833,0.00010877
 ,0.00001500,0.00003315,0.00001403,0.00000937,0.00000339,-0.00162457,-0
 .00193053,-0.00270762,0.00015901,0.00015273,0.00004495,-0.02883821,0.0
 0842107,-0.00939667,0.00150227,0.00014090,0.00074550,0.00001271,-0.000
 01486,0.00004128,0.00004227,0.00003946,-0.00002713,0.05652915,-0.06018
 119,0.01907654,0.00912591,-0.00348835,0.00530867,-0.05984787,0.0648831
 7,0.00011362,-0.00024050,0.00121326,0.00001449,-0.00001979,-0.00012982
 ,0.00005422,-0.00005959,-0.00011944,-0.00010297,-0.00011188,-0.0003828
 1,0.00002165,0.00003475,-0.00000161,-0.00003643,-0.00014278,0.00007070
 ,-0.00008492,0.00003535,0.00005452,0.00003489,-0.00004295,0.00003192,0
 .00000437,-0.00000880,-0.00001992,-0.00016013,-0.00054183,-0.00096883,
 0.00016424,-0.00014157,-0.00000911,-0.01141192,0.00479690,-0.00387579,
 0.00085539,-0.00032568,0.00025849,-0.00003234,-0.00000064,-0.00003282,
 -0.00004482,0.00000151,0.00002405,-0.08645227,0.01987171,-0.08387567,0
 .02191956,-0.00517139,0.01154531,0.09639485,-0.02343929,0.08531919,-0.
 00119153,0.00078739,-0.00147183,-0.00020905,-0.00036372,-0.00018157,-0
 .00003050,-0.00009112,-0.00008485,0.00012356,0.00021425,0.00009160,0.0
 0001691,0.00000522,0.00002653,0.00001570,0.00000397,-0.00001460,-0.000
 02233,0.00002792,-0.00001450,0.00001308,-0.00001008,0.00000938,0.00000
 528,0.00000818,-0.00000123,0.00034597,-0.00313961,-0.00071917,0.000082
 57,-0.00004348,0.00006951,-0.00523586,-0.01138998,0.01152613,0.0000870
 2,0.00050184,-0.00044096,-0.00003651,-0.00001521,-0.00004294,0.0000022
 7,0.00001159,0.00001349,-0.04854273,-0.02422984,0.02761983,-0.00222420
 ,-0.01453576,0.01161264,0.00484951,0.02219916,-0.02125405,0.05193125,-
 0.00191254,0.00169499,-0.00123391,-0.00038509,-0.00074845,-0.00035703,
 0.00006237,-0.00018089,-0.00014659,0.00024763,0.00018156,-0.00009756,0
 .00002985,0.00002249,0.00002221,-0.00001085,-0.00006683,0.00000514,-0.
 00006295,0.00008166,0.00005282,0.00003221,-0.00005030,0.00003696,0.000
 00911,0.00000637,-0.00001520,0.00056098,-0.00376883,-0.00134701,0.0000
 9952,-0.00017944,0.00008059,-0.00514386,-0.01707094,0.02072678,0.00016
 934,0.00097405,-0.00129159,-0.00004694,0.00002320,-0.00011291,-0.00002
 213,-0.00000583,0.00003223,-0.02395285,-0.17899554,0.12690848,0.000697
 24,0.01063389,-0.00886261,-0.00048091,-0.00563457,0.00548374,0.0300822
 4,0.19308484,-0.00113901,0.00091939,-0.00063569,-0.00022291,-0.0003945
 2,-0.00020256,0.00004548,-0.00002521,0.00001697,0.00014540,0.00008868,
 0.00000197,-0.00000296,-0.00000070,0.00000500,0.00001156,0.00000792,-0
 .00000608,-0.00004162,-0.00000304,-0.00001327,0.00002480,-0.00000133,0
 .00000702,0.00000300,0.00000882,0.00000581,-0.00071921,-0.00103813,-0.
 00031668,0.00006257,0.00000896,0.00005893,-0.00119270,-0.01102882,0.01
 345391,0.00041505,0.00117721,-0.00000627,-0.00004548,-0.00004970,-0.00
 001468,0.00001656,0.00001345,0.00000627,0.02658318,0.12510586,-0.17407
 941,0.00096825,0.01659338,-0.01468875,0.00183296,0.00853554,-0.0090898
 6,-0.02677449,-0.13991568,0.18546316,0.00008370,0.00011310,0.00007053,
 -0.00004847,-0.00004228,-0.00001256,-0.00001609,-0.00004114,0.00003037
 ,0.00109834,0.00160846,0.00104130,-0.00005614,0.00011524,-0.00002141,0
 .00047693,-0.00037512,0.00018897,0.01014938,-0.00780762,-0.00267575,-0
 .00008686,0.00003845,-0.00012936,-0.00173281,-0.00063427,-0.00134438,-
 0.00002810,0.00011431,-0.00011122,-0.01077434,0.00237002,-0.01616786,-
 0.00010408,0.00004067,0.00008043,0.00001834,-0.00001503,0.00002279,-0.
 15926834,-0.06003887,-0.04487441,-0.00584725,-0.00771000,-0.00883531,0
 .00011198,0.00002110,-0.00004464,0.00000408,-0.00002164,0.00000450,-0.
 00012858,-0.00009896,0.00004612,-0.00003820,0.00002428,-0.00003560,0.5
 2236142,-0.00009822,0.00004240,-0.00011610,0.00001533,0.00001937,-0.00
 000208,0.00000488,0.00001478,-0.00002289,-0.00098685,-0.00093846,-0.00
 125207,0.00005306,-0.00017069,-0.00001591,-0.00031172,0.00022962,-0.00
 012957,-0.00738849,0.00794609,0.00647533,0.00056542,0.00070571,-0.0001
 0953,0.00194406,0.00118339,0.00114930,-0.00008732,-0.00017309,0.000142
 56,0.01052466,0.00666816,-0.00230428,0.00025537,0.00004226,0.00000525,
 -0.00003051,0.00002837,0.00002031,-0.06170234,-0.12342469,-0.02809666,
 -0.01763752,-0.00593969,-0.01059132,0.00009917,-0.00001605,0.00003354,
 -0.00002422,0.00001754,-0.00000772,-0.00007893,-0.00011028,-0.00000033
 ,-0.00003805,-0.00000644,-0.00001747,-0.00166831,0.55508356,-0.0000563
 2,-0.00023987,0.00015910,0.00001578,0.00012710,-0.00002223,0.00004168,
 0.00004285,0.00001007,-0.00118198,-0.00188058,-0.00096783,-0.00001775,
 0.00006129,0.00002334,-0.00073476,0.00050723,-0.00031610,-0.00233849,0
 .00635994,0.00221931,-0.00079213,-0.00089071,-0.00002657,0.00003429,-0
 .00038546,-0.00012379,0.00015892,0.00014895,-0.00007549,-0.03130559,-0
 .01706109,-0.03296974,-0.00016081,-0.00018599,-0.00006528,0.00000797,0
 .00000370,0.00001144,-0.04234070,-0.02562721,-0.10878606,0.01079893,0.
 00902978,0.00979709,-0.00007569,0.00003901,0.00001972,-0.00001099,0.00
 001335,0.00000730,0.00012000,0.00010586,-0.00004759,0.00004549,0.00001
 656,0.00003875,-0.02668279,-0.03844690,0.55972458,-0.00005193,-0.00006
 805,0.00004921,0.00001024,0.00004696,-0.00001616,0.00001269,0.00001374
 ,0.00000168,-0.00028333,-0.00071892,-0.00035105,-0.00002731,0.00001095
 ,0.00002138,-0.00025812,0.00016451,-0.00009050,-0.00192615,0.00228911,
 0.00047709,-0.00006559,-0.00012770,0.00001094,0.00021636,0.00000845,0.
 00013010,0.00004150,0.00002621,-0.00001419,-0.00149972,-0.00246001,-0.
 00163562,-0.00003068,-0.00001603,0.00000296,-0.00000326,-0.00000070,-0
 .00000350,0.01199928,-0.01001196,-0.02405269,0.00006708,0.00085602,0.0
 0133800,0.00000254,-0.00000363,-0.00001005,0.00000616,0.00000864,0.000
 00163,0.00001378,0.00002622,0.00000919,0.00000438,0.00000434,0.0000094
 9,-0.08277598,0.03705903,0.08260283,0.08902367,-0.00002513,-0.00004054
 ,0.00007455,0.00000080,0.00004092,-0.00001946,0.00001448,0.00000398,-0
 .00000509,-0.00009820,-0.00049793,-0.00017006,0.00000791,0.00002092,0.
 00002169,-0.00017266,0.00009792,-0.00008179,-0.00053269,0.00142522,0.0
 0011171,-0.00005310,-0.00013444,0.00003296,0.00001141,-0.00012629,0.00
 001333,0.00003562,0.00005885,-0.00008042,-0.00071113,-0.00131990,-0.00
 025828,-0.00006792,-0.00002699,0.00003505,0.00001010,-0.00001590,-0.00
 000610,0.00738273,-0.00498763,-0.01196396,-0.00049413,0.00035012,0.000
 86809,-0.00000806,0.00001538,-0.00001518,0.00001804,-0.00001546,0.0000
 0943,-0.00000163,0.00002197,0.00002160,0.00000741,0.00000991,-0.000006
 54,0.03791197,-0.09341642,-0.09011630,-0.04313783,0.09578744,-0.000054
 77,-0.00005687,-0.00001010,0.00000163,0.00004467,-0.00001498,-0.000000
 83,0.00001801,0.00002764,-0.00011320,-0.00058076,-0.00027071,-0.000036
 90,0.00001569,0.00003702,-0.00017165,0.00015294,-0.00005438,-0.0015800
 3,0.00139454,0.00048216,-0.00013143,-0.00011459,0.00000682,0.00017252,
 0.00004179,0.00008405,0.00001347,0.00004405,0.00005931,-0.00107740,-0.
 00343210,-0.00076149,0.00002731,-0.00004732,-0.00006835,-0.00001231,0.
 00002676,0.00003667,0.00481969,-0.00468473,-0.01608162,-0.00080590,0.0
 0011376,0.00058918,0.00003882,-0.00002379,0.00000833,-0.00003611,0.000
 04147,-0.00000378,0.00001769,-0.00001596,-0.00002072,-0.00000476,0.000
 00549,0.00002243,0.08456128,-0.08957141,-0.22576752,-0.08812834,0.1004
 0769,0.24611036,-0.00001324,-0.00005260,0.00008443,-0.00000967,0.00003
 997,-0.00002000,0.00001348,0.00000389,0.00000637,0.00021540,-0.0001060
 5,0.00023694,-0.00001022,0.00005632,0.00001700,-0.00005790,0.00001011,
 -0.00004292,0.00167304,-0.00094347,-0.00134807,-0.00017698,-0.00019217
 ,0.00005516,-0.00056844,-0.00035774,-0.00036451,0.00005513,0.00012589,
 -0.00010399,-0.00317109,-0.00121841,0.00023910,-0.00012976,-0.00005741
 ,0.00000341,0.00001733,-0.00000890,0.00000802,-0.01478762,0.01728667,-
 0.00776480,0.00083222,-0.00121135,0.00033891,-0.00001576,0.00000625,-0
 .00001195,-0.00000208,-0.00000181,0.00000493,0.00002840,0.00001824,0.0
 0000295,0.00001411,0.00001265,0.00000651,-0.17637804,0.11849949,-0.051
 10522,-0.00900255,0.00833957,-0.00308879,0.18932274,-0.00001567,-0.000
 05749,-0.00000096,0.00000361,0.00001947,0.00000022,-0.00000323,0.00001
 065,0.00002094,0.00012556,-0.00000410,0.00015742,-0.00001909,0.0000293
 0,0.00001418,0.00000367,-0.00000094,-0.00000494,0.00121431,-0.00074123
 ,-0.00108059,-0.00005095,-0.00003353,0.00004836,-0.00039986,-0.0002558
 9,-0.00027187,0.00003246,0.00005158,0.00002209,-0.00126493,-0.00049727
 ,-0.00081700,-0.00004431,-0.00005133,-0.00007877,-0.00000178,0.0000144
 7,0.00001178,-0.01241803,0.01437290,-0.00443205,0.00116505,-0.00006714
 ,0.00060689,-0.00003405,-0.00001549,0.00000602,-0.00001956,0.00002860,
 -0.00000294,0.00006605,0.00003469,-0.00002226,0.00001984,-0.00000675,0
 .00003335,0.11670534,-0.16068757,0.05012707,0.00955309,-0.00961453,0.0
 0413624,-0.13075388,0.17103173,-0.00001170,0.00000669,0.00006239,-0.00
 000857,0.00001257,-0.00001549,0.00000659,-0.00000349,-0.00000151,0.000
 27958,0.00012024,0.00016760,-0.00000515,0.00003394,0.00001186,0.000019
 44,-0.00002360,0.00001336,0.00121838,-0.00167484,-0.00110093,-0.000145
 50,-0.00015445,-0.00004205,-0.00038385,-0.00024184,-0.00026329,0.00002
 411,0.00005832,-0.00007289,-0.00356967,-0.00091088,0.00000607,-0.00006
 339,0.00000138,0.00005339,0.00000997,-0.00001004,-0.00000120,-0.012558
 48,0.01246360,-0.00854352,0.00053156,-0.00059694,0.00019619,0.00003918
 ,0.00000500,-0.00001655,0.00000205,-0.00000525,0.00000036,-0.00002935,
 -0.00001326,0.00001433,-0.00001068,0.00001631,-0.00000832,-0.05127122,
 0.05145951,-0.06471977,0.02024256,-0.01846494,0.00877487,0.05944203,-0
 .05257555,0.07034466,-0.00005965,-0.00008278,-0.00004047,0.00001758,0.
 00003338,0.00000608,-0.00000318,0.00002472,0.00001509,0.00001681,-0.00
 006045,-0.00000138,-0.00000722,-0.00001560,0.00001312,-0.00001882,0.00
 001762,-0.00000678,-0.00009809,0.00036937,-0.00039133,0.00030458,0.000
 33035,0.00000226,0.00000869,0.00004334,-0.00005908,0.00003118,0.000024
 17,0.00005670,0.00224600,0.00194796,0.00191217,-0.00002414,-0.00005906
 ,-0.00013799,-0.00000769,0.00002557,0.00000141,-0.01172657,-0.01928646
 ,0.01653821,-0.00211167,-0.00260296,-0.00330486,-0.00008187,-0.0000249
 1,0.00004113,-0.00003292,0.00004554,-0.00001088,0.00014787,0.00009938,
 -0.00005567,0.00003930,-0.00001364,0.00004916,-0.09702090,-0.07896799,
 0.06297734,-0.00547306,-0.00843757,0.00559000,0.01215149,0.01613635,-0
 .01375788,0.10170225,-0.00004540,-0.00001828,0.00002837,0.00000500,0.0
 0001826,-0.00000920,0.00000812,0.00000222,-0.00001251,0.00004920,-0.00
 000172,-0.00000297,0.00000827,-0.00000417,0.00000280,-0.00001158,-0.00
 000588,-0.00000606,0.00026131,0.00031753,-0.00041996,0.00023929,0.0001
 8235,0.00013802,-0.00007254,-0.00005845,-0.00005413,0.00001867,-0.0000
 0905,-0.00004927,0.00255570,0.00133017,0.00063317,-0.00003058,0.000038
 00,0.00006809,0.00000722,-0.00001896,-0.00003237,-0.00697970,-0.013070
 65,0.01017072,-0.00285489,0.00008983,-0.00155083,0.00002647,-0.0000015
 3,-0.00002288,0.00002003,-0.00001375,0.00000582,-0.00001875,0.00002332
 ,0.00002372,-0.00001216,0.00000186,-0.00001141,-0.08060968,-0.18709789
 ,0.10825143,0.00647755,0.01236340,-0.00791556,-0.00949523,-0.01356012,
 0.01049751,0.09045367,0.19949352,-0.00001151,0.00003588,0.00000288,0.0
 0000511,-0.00000641,-0.00000202,0.00000015,-0.00000895,-0.00001539,0.0
 0003251,0.00009337,0.00001160,0.00000807,-0.00000181,-0.00000309,0.000
 03546,-0.00002515,0.00000904,-0.00033687,-0.00040034,-0.00017741,0.000
 10657,0.00026853,-0.00030255,0.00003282,0.00004497,0.00000584,-0.00002
 258,-0.00004024,-0.00003341,0.00111171,-0.00027480,0.00156655,-0.00000
 710,0.00006974,0.00004073,-0.00000058,-0.00001816,-0.00003257,-0.00769
 921,-0.01409230,0.01160738,-0.00279195,-0.00100274,-0.00127236,-0.0000
 0799,0.00000358,-0.00002318,0.00003728,-0.00002696,0.00000523,-0.00002
 632,0.00002872,0.00004221,0.00000103,-0.00000724,-0.00001864,0.0661602
 0,0.11139844,-0.13812273,0.00940504,0.01959203,-0.01318520,0.00340450,
 0.00410237,-0.00485956,-0.06943634,-0.11973251,0.14475665\\-0.00000244
 ,-0.00000551,0.00000435,-0.00000264,-0.00001140,-0.00000109,-0.0000007
 3,-0.00000762,-0.00000064,0.00000398,-0.00000556,-0.00000058,0.0000010
 9,-0.00000681,0.00000239,0.00000365,-0.00000805,0.00000248,0.00000766,
 0.00000066,0.00000248,0.00000777,-0.00000265,0.00000389,0.00000690,-0.
 00000287,0.00000308,-0.00000344,-0.00000976,-0.00000248,0.00000200,-0.
 00000091,0.00000176,-0.00000324,0.00000470,-0.00000471,-0.00000441,-0.
 00000234,-0.00000099,0.00000526,0.00000596,0.00000191,0.00000683,0.000
 00352,0.00000323,-0.00000904,0.00000200,-0.00000253,-0.00000852,0.0000
 0097,-0.00000490,-0.00000936,0.00000526,-0.00000418,-0.00001177,0.0000
 0156,-0.00000558,0.00000337,0.00000905,0.00000178,0.00000179,0.0000085
 6,-0.00000003,0.00000513,0.00001174,0.00000123,0.00000017,0.00000949,-
 0.00000087\\\@
 The archive entry for this job was punched.


 A HARD FALL SHOULD MEAN A HIGH BOUNCE 
 IF ONE IS MADE OF THE RIGHT MATERIAL.

                -- THE CHEMIST ANALYST, MARCH 1950
 Job cpu time:       0 days  0 hours 25 minutes 21.7 seconds.
 Elapsed time:       0 days  0 hours  1 minutes 35.4 seconds.
 File lengths (MBytes):  RWF=    130 Int=      0 D2E=      0 Chk=     10 Scr=      1
 Normal termination of Gaussian 16 at Thu Sep 30 18:02:22 2021.
