 Entering Gaussian System, Link 0=/home/rong/g16/g16
 Input=/home/rong/g16/102121/CH2CH2NMeCH2CH3.gjf
 Output=/home/rong/g16/102121/CH2CH2NMeCH2CH3.log
 Initial command:
 /home/rong/g16/l1.exe "/tmp/Gau-101404.inp" -scrdir="/tmp/"
 Default is to use a total of   8 processors:
                                8 via shared-memory
                                1 via Linda
 Entering Link 1 = /home/rong/g16/l1.exe PID=    101406.
  
 Copyright (c) 1988-2019, Gaussian, Inc.  All Rights Reserved.
  
 This is part of the Gaussian(R) 16 program.  It is based on
 the Gaussian(R) 09 system (copyright 2009, Gaussian, Inc.),
 the Gaussian(R) 03 system (copyright 2003, Gaussian, Inc.),
 the Gaussian(R) 98 system (copyright 1998, Gaussian, Inc.),
 the Gaussian(R) 94 system (copyright 1995, Gaussian, Inc.),
 the Gaussian 92(TM) system (copyright 1992, Gaussian, Inc.),
 the Gaussian 90(TM) system (copyright 1990, Gaussian, Inc.),
 the Gaussian 88(TM) system (copyright 1988, Gaussian, Inc.),
 the Gaussian 86(TM) system (copyright 1986, Carnegie Mellon
 University), and the Gaussian 82(TM) system (copyright 1983,
 Carnegie Mellon University). Gaussian is a federally registered
 trademark of Gaussian, Inc.
  
 This software contains proprietary and confidential information,
 including trade secrets, belonging to Gaussian, Inc.
  
 This software is provided under written license and may be
 used, copied, transmitted, or stored only in accord with that
 written license.
  
 The following legend is applicable only to US Government
 contracts under FAR:
  
                    RESTRICTED RIGHTS LEGEND
  
 Use, reproduction and disclosure by the US Government is
 subject to restrictions as set forth in subparagraphs (a)
 and (c) of the Commercial Computer Software - Restricted
 Rights clause in FAR 52.227-19.
  
 Gaussian, Inc.
 340 Quinnipiac St., Bldg. 40, Wallingford CT 06492
  
  
 ---------------------------------------------------------------
 Warning -- This program may not be used in any manner that
 competes with the business of Gaussian, Inc. or will provide
 assistance to any competitor of Gaussian, Inc.  The licensee
 of this program is prohibited from giving any competitor of
 Gaussian, Inc. access to this program.  By using this program,
 the user acknowledges that Gaussian, Inc. is engaged in the
 business of creating and licensing software in the field of
 computational chemistry and represents and warrants to the
 licensee that it is not a competitor of Gaussian, Inc. and that
 it will not use this program in any manner prohibited above.
 ---------------------------------------------------------------
  

 Cite this work as:
 Gaussian 16, Revision C.01,
 M. J. Frisch, G. W. Trucks, H. B. Schlegel, G. E. Scuseria, 
 M. A. Robb, J. R. Cheeseman, G. Scalmani, V. Barone, 
 G. A. Petersson, H. Nakatsuji, X. Li, M. Caricato, A. V. Marenich, 
 J. Bloino, B. G. Janesko, R. Gomperts, B. Mennucci, H. P. Hratchian, 
 J. V. Ortiz, A. F. Izmaylov, J. L. Sonnenberg, D. Williams-Young, 
 F. Ding, F. Lipparini, F. Egidi, J. Goings, B. Peng, A. Petrone, 
 T. Henderson, D. Ranasinghe, V. G. Zakrzewski, J. Gao, N. Rega, 
 G. Zheng, W. Liang, M. Hada, M. Ehara, K. Toyota, R. Fukuda, 
 J. Hasegawa, M. Ishida, T. Nakajima, Y. Honda, O. Kitao, H. Nakai, 
 T. Vreven, K. Throssell, J. A. Montgomery, Jr., J. E. Peralta, 
 F. Ogliaro, M. J. Bearpark, J. J. Heyd, E. N. Brothers, K. N. Kudin, 
 V. N. Staroverov, T. A. Keith, R. Kobayashi, J. Normand, 
 K. Raghavachari, A. P. Rendell, J. C. Burant, S. S. Iyengar, 
 J. Tomasi, M. Cossi, J. M. Millam, M. Klene, C. Adamo, R. Cammi, 
 J. W. Ochterski, R. L. Martin, K. Morokuma, O. Farkas, 
 J. B. Foresman, and D. J. Fox, Gaussian, Inc., Wallingford CT, 2019.
 
 ******************************************
 Gaussian 16:  ES64L-G16RevC.01  3-Jul-2019
                24-Oct-2021 
 ******************************************
 %mem=15GB
 %chk=CH2CH2NMeCH2CH3.chk
 %nprocshared=8
 Will use up to    8 processors via shared memory.
 ----------------------------------------------------
 # opt freq b3lyp/6-31g(d) scrf=(smd,solvent=toluene)
 ----------------------------------------------------
 1/18=20,19=15,26=3,38=1/1,3;
 2/9=110,12=2,17=6,18=5,40=1/2;
 3/5=1,6=6,7=1,11=2,25=1,30=1,70=32201,71=1,72=13,74=-5/1,2,3;
 4//1;
 5/5=2,38=5,53=13/2;
 6/7=2,8=2,9=2,10=2,28=1/1;
 7//1,2,3,16;
 1/18=20,19=15,26=3/3(2);
 2/9=110/2;
 99//99;
 2/9=110/2;
 3/5=1,6=6,7=1,11=2,25=1,30=1,70=32205,71=1,72=13,74=-5/1,2,3;
 4/5=5,16=3,69=1/1;
 5/5=2,38=5,53=13/2;
 7//1,2,3,16;
 1/18=20,19=15,26=3/3(-5);
 2/9=110/2;
 6/7=2,8=2,9=2,10=2,19=2,28=1/1;
 99/9=1/99;
 ---------------
 CH2CH2NMeCH2CH3
 ---------------
 Symbolic Z-matrix:
 Charge =  0 Multiplicity = 1
 C                    -2.67647   1.11755  -0.01463 
 H                    -2.3198    1.62195  -0.88828 
 H                    -3.74647   1.11756  -0.01463 
 C                    -2.16313   1.84351   1.24278 
 H                    -1.09313   1.84332   1.24287 
 H                    -2.51962   2.85237   1.24268 
 C                    -2.6767    1.11771   2.50018 
 H                    -2.32      1.62209   3.37383 
 H                    -3.7467    1.11793   2.5001 
 N                    -2.18698  -0.26831   2.50029 
 N                    -2.18649  -0.26838  -0.01463 
 C                    -0.9014   -0.3336    3.21016 
 H                    -1.01365   0.081     4.19016 
 H                    -0.58847  -1.35384   3.28821 
 H                    -0.1663    0.22451   2.66882 
 C                    -3.16451  -1.13334   3.17636 
 H                    -3.26191  -0.83085   4.19808 
 H                    -4.11274  -1.04979   2.68771 
 C                    -2.68366  -2.59516   3.11739 
 H                    -2.09186  -2.81112   3.98228 
 H                    -3.53066  -3.24851   3.09255 
 H                    -2.09436  -2.74152   2.23637 
 C                    -0.96176  -0.35512  -0.82298 
 H                    -0.57481  -1.3517   -0.77839 
 H                    -1.18638  -0.10484  -1.83876 
 H                    -0.23263   0.32806  -0.44017 
 C                    -3.21387  -1.15133  -0.58541 
 H                    -3.35063  -0.91692  -1.62042 
 H                    -4.13661  -1.0094   -0.06262 
 C                    -2.7653   -2.61795  -0.44615 
 H                    -3.51276  -3.17078   0.08356 
 H                    -2.62932  -3.04321  -1.41855 
 H                    -1.84215  -2.65889   0.09332 
 

 GradGradGradGradGradGradGradGradGradGradGradGradGradGradGradGradGradGrad
 Berny optimization.
 Initialization pass.
                           ----------------------------
                           !    Initial Parameters    !
                           ! (Angstroms and Degrees)  !
 --------------------------                            --------------------------
 ! Name  Definition              Value          Derivative Info.                !
 --------------------------------------------------------------------------------
 ! R1    R(1,2)                  1.07           estimate D2E/DX2                !
 ! R2    R(1,3)                  1.07           estimate D2E/DX2                !
 ! R3    R(1,4)                  1.54           estimate D2E/DX2                !
 ! R4    R(1,11)                 1.47           estimate D2E/DX2                !
 ! R5    R(4,5)                  1.07           estimate D2E/DX2                !
 ! R6    R(4,6)                  1.07           estimate D2E/DX2                !
 ! R7    R(4,7)                  1.54           estimate D2E/DX2                !
 ! R8    R(7,8)                  1.07           estimate D2E/DX2                !
 ! R9    R(7,9)                  1.07           estimate D2E/DX2                !
 ! R10   R(7,10)                 1.47           estimate D2E/DX2                !
 ! R11   R(10,12)                1.47           estimate D2E/DX2                !
 ! R12   R(10,16)                1.47           estimate D2E/DX2                !
 ! R13   R(11,23)                1.47           estimate D2E/DX2                !
 ! R14   R(11,27)                1.47           estimate D2E/DX2                !
 ! R15   R(12,13)                1.07           estimate D2E/DX2                !
 ! R16   R(12,14)                1.07           estimate D2E/DX2                !
 ! R17   R(12,15)                1.07           estimate D2E/DX2                !
 ! R18   R(16,17)                1.07           estimate D2E/DX2                !
 ! R19   R(16,18)                1.07           estimate D2E/DX2                !
 ! R20   R(16,19)                1.54           estimate D2E/DX2                !
 ! R21   R(19,20)                1.07           estimate D2E/DX2                !
 ! R22   R(19,21)                1.07           estimate D2E/DX2                !
 ! R23   R(19,22)                1.07           estimate D2E/DX2                !
 ! R24   R(23,24)                1.07           estimate D2E/DX2                !
 ! R25   R(23,25)                1.07           estimate D2E/DX2                !
 ! R26   R(23,26)                1.07           estimate D2E/DX2                !
 ! R27   R(27,28)                1.07           estimate D2E/DX2                !
 ! R28   R(27,29)                1.07           estimate D2E/DX2                !
 ! R29   R(27,30)                1.54           estimate D2E/DX2                !
 ! R30   R(30,31)                1.07           estimate D2E/DX2                !
 ! R31   R(30,32)                1.07           estimate D2E/DX2                !
 ! R32   R(30,33)                1.07           estimate D2E/DX2                !
 ! A1    A(2,1,3)              109.4712         estimate D2E/DX2                !
 ! A2    A(2,1,4)              109.4713         estimate D2E/DX2                !
 ! A3    A(2,1,11)             109.4712         estimate D2E/DX2                !
 ! A4    A(3,1,4)              109.4712         estimate D2E/DX2                !
 ! A5    A(3,1,11)             109.4712         estimate D2E/DX2                !
 ! A6    A(4,1,11)             109.4712         estimate D2E/DX2                !
 ! A7    A(1,4,5)              109.4712         estimate D2E/DX2                !
 ! A8    A(1,4,6)              109.4712         estimate D2E/DX2                !
 ! A9    A(1,4,7)              109.4712         estimate D2E/DX2                !
 ! A10   A(5,4,6)              109.4713         estimate D2E/DX2                !
 ! A11   A(5,4,7)              109.4712         estimate D2E/DX2                !
 ! A12   A(6,4,7)              109.4712         estimate D2E/DX2                !
 ! A13   A(4,7,8)              109.4712         estimate D2E/DX2                !
 ! A14   A(4,7,9)              109.4712         estimate D2E/DX2                !
 ! A15   A(4,7,10)             109.4712         estimate D2E/DX2                !
 ! A16   A(8,7,9)              109.4712         estimate D2E/DX2                !
 ! A17   A(8,7,10)             109.4713         estimate D2E/DX2                !
 ! A18   A(9,7,10)             109.4712         estimate D2E/DX2                !
 ! A19   A(7,10,12)            109.4668         estimate D2E/DX2                !
 ! A20   A(7,10,16)            109.4713         estimate D2E/DX2                !
 ! A21   A(12,10,16)           109.4713         estimate D2E/DX2                !
 ! A22   A(1,11,23)            109.4712         estimate D2E/DX2                !
 ! A23   A(1,11,27)            109.4712         estimate D2E/DX2                !
 ! A24   A(23,11,27)           109.4713         estimate D2E/DX2                !
 ! A25   A(10,12,13)           109.4712         estimate D2E/DX2                !
 ! A26   A(10,12,14)           109.4712         estimate D2E/DX2                !
 ! A27   A(10,12,15)           109.4712         estimate D2E/DX2                !
 ! A28   A(13,12,14)           109.4713         estimate D2E/DX2                !
 ! A29   A(13,12,15)           109.4712         estimate D2E/DX2                !
 ! A30   A(14,12,15)           109.4712         estimate D2E/DX2                !
 ! A31   A(10,16,17)           109.4712         estimate D2E/DX2                !
 ! A32   A(10,16,18)           109.4712         estimate D2E/DX2                !
 ! A33   A(10,16,19)           109.4712         estimate D2E/DX2                !
 ! A34   A(17,16,18)           109.4712         estimate D2E/DX2                !
 ! A35   A(17,16,19)           109.4713         estimate D2E/DX2                !
 ! A36   A(18,16,19)           109.4712         estimate D2E/DX2                !
 ! A37   A(16,19,20)           109.4712         estimate D2E/DX2                !
 ! A38   A(16,19,21)           109.4712         estimate D2E/DX2                !
 ! A39   A(16,19,22)           109.4712         estimate D2E/DX2                !
 ! A40   A(20,19,21)           109.4713         estimate D2E/DX2                !
 ! A41   A(20,19,22)           109.4712         estimate D2E/DX2                !
 ! A42   A(21,19,22)           109.4712         estimate D2E/DX2                !
 ! A43   A(11,23,24)           109.4712         estimate D2E/DX2                !
 ! A44   A(11,23,25)           109.4712         estimate D2E/DX2                !
 ! A45   A(11,23,26)           109.4712         estimate D2E/DX2                !
 ! A46   A(24,23,25)           109.4713         estimate D2E/DX2                !
 ! A47   A(24,23,26)           109.4712         estimate D2E/DX2                !
 ! A48   A(25,23,26)           109.4712         estimate D2E/DX2                !
 ! A49   A(11,27,28)           109.4712         estimate D2E/DX2                !
 ! A50   A(11,27,29)           109.4712         estimate D2E/DX2                !
 ! A51   A(11,27,30)           109.4712         estimate D2E/DX2                !
 ! A52   A(28,27,29)           109.4712         estimate D2E/DX2                !
 ! A53   A(28,27,30)           109.4713         estimate D2E/DX2                !
 ! A54   A(29,27,30)           109.4712         estimate D2E/DX2                !
 ! A55   A(27,30,31)           109.4712         estimate D2E/DX2                !
 ! A56   A(27,30,32)           109.4712         estimate D2E/DX2                !
 ! A57   A(27,30,33)           109.4712         estimate D2E/DX2                !
 ! A58   A(31,30,32)           109.4713         estimate D2E/DX2                !
 ! A59   A(31,30,33)           109.4712         estimate D2E/DX2                !
 ! A60   A(32,30,33)           109.4712         estimate D2E/DX2                !
 ! D1    D(2,1,4,5)            -60.0111         estimate D2E/DX2                !
 ! D2    D(2,1,4,6)             59.9889         estimate D2E/DX2                !
 ! D3    D(2,1,4,7)            179.9889         estimate D2E/DX2                !
 ! D4    D(3,1,4,5)            179.9889         estimate D2E/DX2                !
 ! D5    D(3,1,4,6)            -60.0111         estimate D2E/DX2                !
 ! D6    D(3,1,4,7)             59.9889         estimate D2E/DX2                !
 ! D7    D(11,1,4,5)            59.9889         estimate D2E/DX2                !
 ! D8    D(11,1,4,6)           179.9889         estimate D2E/DX2                !
 ! D9    D(11,1,4,7)           -60.0111         estimate D2E/DX2                !
 ! D10   D(2,1,11,23)           24.3204         estimate D2E/DX2                !
 ! D11   D(2,1,11,27)          -95.6796         estimate D2E/DX2                !
 ! D12   D(3,1,11,23)          144.3204         estimate D2E/DX2                !
 ! D13   D(3,1,11,27)           24.3204         estimate D2E/DX2                !
 ! D14   D(4,1,11,23)          -95.6796         estimate D2E/DX2                !
 ! D15   D(4,1,11,27)          144.3203         estimate D2E/DX2                !
 ! D16   D(1,4,7,8)            179.9979         estimate D2E/DX2                !
 ! D17   D(1,4,7,9)            -60.0021         estimate D2E/DX2                !
 ! D18   D(1,4,7,10)            59.9979         estimate D2E/DX2                !
 ! D19   D(5,4,7,8)             59.9979         estimate D2E/DX2                !
 ! D20   D(5,4,7,9)            179.9979         estimate D2E/DX2                !
 ! D21   D(5,4,7,10)           -60.0021         estimate D2E/DX2                !
 ! D22   D(6,4,7,8)            -60.0021         estimate D2E/DX2                !
 ! D23   D(6,4,7,9)             59.9979         estimate D2E/DX2                !
 ! D24   D(6,4,7,10)           179.9979         estimate D2E/DX2                !
 ! D25   D(4,7,10,12)           90.8047         estimate D2E/DX2                !
 ! D26   D(4,7,10,16)         -149.1979         estimate D2E/DX2                !
 ! D27   D(8,7,10,12)          -29.1953         estimate D2E/DX2                !
 ! D28   D(8,7,10,16)           90.8021         estimate D2E/DX2                !
 ! D29   D(9,7,10,12)         -149.1953         estimate D2E/DX2                !
 ! D30   D(9,7,10,16)          -29.1979         estimate D2E/DX2                !
 ! D31   D(7,10,12,13)          54.8854         estimate D2E/DX2                !
 ! D32   D(7,10,12,14)         174.8855         estimate D2E/DX2                !
 ! D33   D(7,10,12,15)         -65.1146         estimate D2E/DX2                !
 ! D34   D(16,10,12,13)        -65.1119         estimate D2E/DX2                !
 ! D35   D(16,10,12,14)         54.8881         estimate D2E/DX2                !
 ! D36   D(16,10,12,15)        174.8881         estimate D2E/DX2                !
 ! D37   D(7,10,16,17)         -62.6833         estimate D2E/DX2                !
 ! D38   D(7,10,16,18)          57.3167         estimate D2E/DX2                !
 ! D39   D(7,10,16,19)         177.3167         estimate D2E/DX2                !
 ! D40   D(12,10,16,17)         57.3113         estimate D2E/DX2                !
 ! D41   D(12,10,16,18)        177.3113         estimate D2E/DX2                !
 ! D42   D(12,10,16,19)        -62.6887         estimate D2E/DX2                !
 ! D43   D(1,11,23,24)         176.8602         estimate D2E/DX2                !
 ! D44   D(1,11,23,25)         -63.1398         estimate D2E/DX2                !
 ! D45   D(1,11,23,26)          56.8602         estimate D2E/DX2                !
 ! D46   D(27,11,23,24)        -63.1399         estimate D2E/DX2                !
 ! D47   D(27,11,23,25)         56.8602         estimate D2E/DX2                !
 ! D48   D(27,11,23,26)        176.8602         estimate D2E/DX2                !
 ! D49   D(1,11,27,28)          66.0909         estimate D2E/DX2                !
 ! D50   D(1,11,27,29)         -53.909          estimate D2E/DX2                !
 ! D51   D(1,11,27,30)        -173.909          estimate D2E/DX2                !
 ! D52   D(23,11,27,28)        -53.909          estimate D2E/DX2                !
 ! D53   D(23,11,27,29)       -173.909          estimate D2E/DX2                !
 ! D54   D(23,11,27,30)         66.091          estimate D2E/DX2                !
 ! D55   D(10,16,19,20)         90.7489         estimate D2E/DX2                !
 ! D56   D(10,16,19,21)       -149.2511         estimate D2E/DX2                !
 ! D57   D(10,16,19,22)        -29.2511         estimate D2E/DX2                !
 ! D58   D(17,16,19,20)        -29.2511         estimate D2E/DX2                !
 ! D59   D(17,16,19,21)         90.7489         estimate D2E/DX2                !
 ! D60   D(17,16,19,22)       -149.2511         estimate D2E/DX2                !
 ! D61   D(18,16,19,20)       -149.2511         estimate D2E/DX2                !
 ! D62   D(18,16,19,21)        -29.2511         estimate D2E/DX2                !
 ! D63   D(18,16,19,22)         90.7489         estimate D2E/DX2                !
 ! D64   D(11,27,30,31)        123.8572         estimate D2E/DX2                !
 ! D65   D(11,27,30,32)       -116.1427         estimate D2E/DX2                !
 ! D66   D(11,27,30,33)          3.8573         estimate D2E/DX2                !
 ! D67   D(28,27,30,31)       -116.1428         estimate D2E/DX2                !
 ! D68   D(28,27,30,32)          3.8572         estimate D2E/DX2                !
 ! D69   D(28,27,30,33)        123.8572         estimate D2E/DX2                !
 ! D70   D(29,27,30,31)          3.8572         estimate D2E/DX2                !
 ! D71   D(29,27,30,32)        123.8573         estimate D2E/DX2                !
 ! D72   D(29,27,30,33)       -116.1427         estimate D2E/DX2                !
 --------------------------------------------------------------------------------
 Trust Radius=3.00D-01 FncErr=1.00D-07 GrdErr=1.00D-06 EigMax=2.50D+02 EigMin=1.00D-04
 Number of steps in this run=    174 maximum allowed number of steps=    198.
 GradGradGradGradGradGradGradGradGradGradGradGradGradGradGradGradGradGrad

                          Input orientation:                          
 ---------------------------------------------------------------------
 Center     Atomic      Atomic             Coordinates (Angstroms)
 Number     Number       Type             X           Y           Z
 ---------------------------------------------------------------------
      1          6           0       -2.676471    1.117551   -0.014630
      2          1           0       -2.319798    1.621949   -0.888281
      3          1           0       -3.746471    1.117564   -0.014630
      4          6           0       -2.163128    1.843508    1.242775
      5          1           0       -1.093128    1.843325    1.242873
      6          1           0       -2.519623    2.852374    1.242678
      7          6           0       -2.676700    1.117713    2.500180
      8          1           0       -2.319997    1.622090    3.373831
      9          1           0       -3.746700    1.117927    2.500101
     10          7           0       -2.186977   -0.268314    2.500288
     11          7           0       -2.186487   -0.268384   -0.014630
     12          6           0       -0.901396   -0.333599    3.210159
     13          1           0       -1.013647    0.081005    4.190161
     14          1           0       -0.588472   -1.353838    3.288208
     15          1           0       -0.166305    0.224515    2.668819
     16          6           0       -3.164508   -1.133338    3.176356
     17          1           0       -3.261906   -0.830847    4.198076
     18          1           0       -4.112740   -1.049795    2.687709
     19          6           0       -2.683661   -2.595156    3.117390
     20          1           0       -2.091863   -2.811121    3.982280
     21          1           0       -3.530664   -3.248507    3.092553
     22          1           0       -2.094360   -2.741516    2.236366
     23          6           0       -0.961762   -0.355116   -0.822976
     24          1           0       -0.574812   -1.351700   -0.778387
     25          1           0       -1.186379   -0.104835   -1.838755
     26          1           0       -0.232627    0.328058   -0.440175
     27          6           0       -3.213874   -1.151327   -0.585408
     28          1           0       -3.350631   -0.916922   -1.620421
     29          1           0       -4.136614   -1.009399   -0.062620
     30          6           0       -2.765301   -2.617952   -0.446145
     31          1           0       -3.512762   -3.170778    0.083558
     32          1           0       -2.629320   -3.043206   -1.418548
     33          1           0       -1.842151   -2.658889    0.093315
 ---------------------------------------------------------------------
                    Distance matrix (angstroms):
                    1          2          3          4          5
     1  C    0.000000
     2  H    1.070000   0.000000
     3  H    1.070000   1.747303   0.000000
     4  C    1.540000   2.148263   2.148263   0.000000
     5  H    2.148263   2.468915   3.024610   1.070000   0.000000
     6  H    2.148263   2.468777   2.468915   1.070000   1.747303
     7  C    2.514810   3.444315   2.732888   1.540000   2.148263
     8  H    3.444314   4.262112   3.710935   2.148263   2.468833
     9  H    2.732995   3.710960   2.514731   2.148263   3.024610
    10  N    2.912909   3.882414   3.267643   2.457987   2.690097
    11  N    1.470000   2.086720   2.086720   2.457987   2.689993
    12  C    3.956766   4.757442   4.538677   3.194114   2.940404
    13  H    4.638931   5.465447   5.120844   3.621437   3.434909
    14  H    4.623444   5.412565   5.195144   4.109301   3.828828
    15  H    3.781447   4.386720   4.562457   2.939735   2.347950
    16  C    3.935362   4.982612   3.948118   3.688239   4.109683
    17  H    4.678235   5.724929   4.666691   4.134403   4.537402
    18  H    3.750052   4.810464   3.483423   3.776244   4.424449
    19  C    4.857344   5.827673   4.972263   4.846325   5.073827
    20  H    5.634848   6.589873   5.843593   5.401437   5.492330
    21  H    5.426481   6.405824   5.363184   5.587526   5.940510
    22  H    4.505356   5.371599   4.763292   4.691950   4.796901
    23  C    2.400500   2.399440   3.252201   3.247238   3.019624
    24  H    3.331291   3.449586   4.091456   4.100878   3.816062
    25  H    2.653683   2.273725   3.372798   3.774375   3.646979
    26  H    2.603221   2.496244   3.626500   2.975860   2.422632
    27  C    2.400500   2.929533   2.399440   3.662698   4.099770
    28  H    2.678086   2.836286   2.621906   4.150666   4.573154
    29  H    2.580356   3.302504   2.162981   3.706451   4.370944
    30  C    3.761393   4.286108   3.886255   4.808293   5.054892
    31  H    4.370216   5.033674   4.295828   5.320560   5.686815
    32  H    4.391481   4.705386   4.531117   5.583900   5.772454
    33  H    3.869010   4.417834   4.230802   4.657881   4.706638
                    6          7          8          9         10
     6  H    0.000000
     7  C    2.148263   0.000000
     8  H    2.468859   1.070000   0.000000
     9  H    2.468833   1.070000   1.747303   0.000000
    10  N    3.380966   1.470000   2.086720   2.086720   0.000000
    11  N    3.380966   2.913047   3.882446   3.268026   2.514918
    12  C    4.079224   2.400434   2.421558   3.272135   1.470000
    13  H    4.316956   2.587769   2.178966   3.376550   2.086720
    14  H    5.060213   3.330203   3.444076   4.087192   2.086720
    15  H    3.804948   2.669892   2.662452   3.694033   2.086720
    16  C    4.476705   2.400501   2.888699   2.421666   1.470000
    17  H    4.780322   2.649944   2.753811   2.629804   2.086720
    18  H    4.455677   2.606812   3.289933   2.206400   2.086720
    19  C    5.763422   3.763826   4.240658   3.911276   2.457987
    20  H    6.305836   4.239621   4.480582   4.513619   2.944692
    21  H    6.454843   4.488211   5.026684   4.411737   3.322322
    22  H    5.697357   3.911824   4.515064   4.206553   2.488968
    23  C    4.120904   4.019155   4.833978   4.579146   3.542990
    24  H    5.053834   4.611393   5.397224   5.187333   3.810842
    25  H    4.474132   4.747846   5.606997   5.184213   4.455920
    26  H    3.799278   3.904194   4.536328   4.649497   3.580708
    27  C    4.455727   3.867551   4.915937   3.867012   3.369829
    28  H    4.805778   4.644704   5.696609   4.612612   4.330708
    29  H    4.385402   3.636468   4.694042   3.353370   3.304359
    30  C    5.730353   4.758558   5.724375   4.858014   3.812705
    31  H    6.213553   4.993017   5.934659   4.928225   4.002822
    32  H    6.469313   5.715936   6.695339   5.824035   4.822133
    33  H    5.670451   4.555457   5.414509   4.866648   3.409878
                   11         12         13         14         15
    11  N    0.000000
    12  C    3.472028   0.000000
    13  H    4.379257   1.070000   0.000000
    14  H    3.826303   1.070000   1.747303   0.000000
    15  H    3.394846   1.070000   1.747303   1.747303   0.000000
    16  C    3.447761   2.400500   2.669950   2.587874   3.330252
    17  H    4.384037   2.606769   2.426150   2.872043   3.610424
    18  H    3.409353   3.331460   3.624976   3.587967   4.147116
    19  C    3.933267   2.880922   3.331909   2.441283   3.806421
    20  H    4.738116   2.855082   3.093567   2.205809   3.827276
    21  H    4.510269   3.927286   4.315758   3.504932   4.853900
    22  H    3.345422   2.858234   3.598872   2.302112   3.563952
    23  C    1.470000   4.033645   5.032339   4.247190   3.627858
    24  H    2.086720   4.129369   5.189575   4.066618   3.812422
    25  H    2.086720   5.062123   6.034253   5.310673   4.633276
    26  H    2.086720   3.769613   4.702237   4.105635   3.111424
    27  C    1.470000   4.519134   5.400528   4.683871   4.665899
    28  H    2.086720   5.447341   6.341941   5.649341   5.462636
    29  H    2.086720   4.651282   5.387769   4.892443   4.974601
    30  C    2.457987   4.696911   5.643403   4.503550   4.953524
    31  H    3.192575   4.964318   5.803780   4.703458   5.423132
    32  H    3.141134   5.634947   6.620326   5.401164   5.783685
    33  H    2.417588   4.000838   4.997757   3.671812   4.213750
                   16         17         18         19         20
    16  C    0.000000
    17  H    1.070000   0.000000
    18  H    1.070000   1.747303   0.000000
    19  C    1.540000   2.148263   2.148263   0.000000
    20  H    2.148263   2.310206   2.976932   1.070000   0.000000
    21  H    2.148263   2.671983   2.310205   1.070000   1.747303
    22  H    2.148263   2.976933   2.671983   1.070000   1.747303
    23  C    4.631671   5.543280   4.768245   4.848629   5.513581
    24  H    4.732251   5.679521   4.962047   4.601141   5.205315
    25  H    5.488365   6.424814   5.472240   5.745165   6.482926
    26  H    4.879641   5.659767   5.170823   5.216225   5.733176
    27  C    3.762131   4.794449   3.395816   4.009548   4.987744
    28  H    4.805263   5.819811   4.377037   5.070322   6.046713
    29  H    3.383979   4.353220   2.750729   3.839031   4.877337
    30  C    3.935220   5.000915   3.754431   3.564543   4.483501
    31  H    3.719925   4.739986   3.411766   3.197325   4.165133
    32  H    5.004714   6.069693   4.799539   4.558337   5.432464
    33  H    3.685250   4.712378   3.804686   3.139622   3.899945
                   21         22         23         24         25
    21  H    0.000000
    22  H    1.747303   0.000000
    23  C    5.504757   4.041938   0.000000
    24  H    5.226770   3.650938   1.070000   0.000000
    25  H    6.300488   4.937927   1.070000   1.747303   0.000000
    26  H    6.012407   4.477969   1.070000   1.747303   1.747303
    27  C    4.245694   3.427013   2.400500   2.653685   2.603221
    28  H    5.261257   4.447714   2.580357   2.933125   2.321883
    29  H    3.916108   3.529358   3.329552   3.649100   3.560446
    30  C    3.675019   2.767904   2.918079   2.551866   3.278431
    31  H    3.010052   2.613563   3.906067   3.561396   4.302017
    32  H    4.604846   3.706156   3.218895   2.737152   3.300405
    33  H    3.492013   2.159421   2.630978   2.018602   3.268964
                   26         27         28         29         30
    26  H    0.000000
    27  C    3.331292   0.000000
    28  H    3.558778   1.070000   0.000000
    29  H    4.143966   1.070000   1.747303   0.000000
    30  C    3.885028   1.540000   2.148263   2.148263   0.000000
    31  H    4.824462   2.148263   2.830141   2.254356   1.070000
    32  H    4.250502   2.148263   2.254356   2.871733   1.070000
    33  H    3.434680   2.148263   2.871733   2.830140   1.070000
                   31         32         33
    31  H    0.000000
    32  H    1.747303   0.000000
    33  H    1.747303   1.747303   0.000000
 Stoichiometry    C9H22N2
 Framework group  C1[X(C9H22N2)]
 Deg. of freedom    93
 Full point group                 C1      NOp   1
 Largest Abelian subgroup         C1      NOp   1
 Largest concise Abelian subgroup C1      NOp   1
                         Standard orientation:                         
 ---------------------------------------------------------------------
 Center     Atomic      Atomic             Coordinates (Angstroms)
 Number     Number       Type             X           Y           Z
 ---------------------------------------------------------------------
      1          6           0       -1.358333   -1.424392   -0.626840
      2          1           0       -2.259571   -1.934573   -0.357796
      3          1           0       -1.354014   -1.239784   -1.680786
      4          6           0       -0.144380   -2.295223   -0.253247
      5          1           0       -0.148592   -2.479669    0.800727
      6          1           0       -0.197940   -3.225931   -0.778427
      7          6           0        1.152722   -1.561063   -0.640723
      8          1           0        1.996183   -2.166105   -0.381115
      9          1           0        1.156951   -1.376648   -1.694703
     10          7           0        1.226280   -0.282404    0.080747
     11          7           0       -1.284889   -0.145862    0.094871
     12          6           0        1.933456   -0.478559    1.354452
     13          1           0        2.889888   -0.920169    1.167052
     14          1           0        2.065646    0.466619    1.838253
     15          1           0        1.359582   -1.124907    1.985168
     16          6           0        1.952360    0.700308   -0.736557
     17          1           0        2.956490    0.364133   -0.890212
     18          1           0        1.463722    0.808286   -1.682324
     19          6           0        1.971091    2.058246   -0.010436
     20          1           0        2.844056    2.121575    0.605049
     21          1           0        1.985266    2.848313   -0.731887
     22          1           0        1.096966    2.148351    0.600045
     23          6           0       -2.092256   -0.227987    1.320561
     24          1           0       -1.995062    0.682972    1.873379
     25          1           0       -3.119234   -0.380226    1.061644
     26          1           0       -1.750146   -1.046484    1.918828
     27          6           0       -1.802621    0.930777   -0.761693
     28          1           0       -2.848296    0.780036   -0.931224
     29          1           0       -1.284610    0.922016   -1.697902
     30          6           0       -1.585564    2.288249   -0.067605
     31          1           0       -1.023548    2.932163   -0.711355
     32          1           0       -2.533925    2.735826    0.144964
     33          1           0       -1.048405    2.139935    0.845830
 ---------------------------------------------------------------------
 Rotational constants (GHZ):           1.1860692           0.9543417           0.6713708
 Standard basis: 6-31G(d) (6D, 7F)
 There are   209 symmetry adapted cartesian basis functions of A   symmetry.
 There are   209 symmetry adapted basis functions of A   symmetry.
   209 basis functions,   396 primitive gaussians,   209 cartesian basis functions
    45 alpha electrons       45 beta electrons
       nuclear repulsion energy       730.3379141303 Hartrees.
 NAtoms=   33 NActive=   33 NUniq=   33 SFac= 1.00D+00 NAtFMM=   60 NAOKFM=F Big=F
 Integral buffers will be    131072 words long.
 Raffenetti 2 integral format.
 Two-electron integral symmetry is turned on.
 ------------------------------------------------------------------------------
 Polarizable Continuum Model (PCM)
 =================================
 Model                : PCM.
 Atomic radii         : SMD-Coulomb.
 Polarization charges : Total charges.
 Charge compensation  : None.
 Solution method      : On-the-fly selection.
 Cavity type          : VdW (van der Waals Surface) (Alpha=1.000).
 Cavity algorithm     : GePol (No added spheres)
                        Default sphere list used, NSphG=   33.
                        Lebedev-Laikov grids with approx.  5.0 points / Ang**2.
                        Smoothing algorithm: York/Karplus (Gamma=1.0000).
                        Polarization charges: spherical gaussians, with
                                              point-specific exponents (IZeta= 3).
                        Self-potential: point-specific (ISelfS= 7).
                        Self-field    : sphere-specific E.n sum rule (ISelfD= 2).
 1st derivatives      : Analytical E(r).r(x)/FMM algorithm (CHGder, D1EAlg=3).
                        Cavity 1st derivative terms included.
 Solvent              : Toluene, Eps=   2.374100 Eps(inf)=   2.238315
 ------------------------------------------------------------------------------
 ------------------------------------------------------------------------------
 Atomic radii for non-electrostatic terms: SMD-CDS.
 ------------------------------------------------------------------------------
 Nuclear repulsion after PCM non-electrostatic terms =      730.3312356894 Hartrees.
 One-electron integrals computed using PRISM.
 NBasis=   209 RedAO= T EigKep=  3.78D-03  NBF=   209
 NBsUse=   209 1.00D-06 EigRej= -1.00D+00 NBFU=   209
 ExpMin= 1.61D-01 ExpMax= 4.17D+03 ExpMxC= 6.27D+02 IAcc=3 IRadAn=         5 AccDes= 0.00D+00
 Harris functional with IExCor=  402 and IRadAn=       5 diagonalized for initial guess.
 HarFok:  IExCor=  402 AccDes= 0.00D+00 IRadAn=         5 IDoV= 1 UseB2=F ITyADJ=14
 ICtDFT=  3500011 ScaDFX=  1.000000  1.000000  1.000000  1.000000
 FoFCou: FMM=F IPFlag=           0 FMFlag=      100000 FMFlg1=           0
         NFxFlg=           0 DoJE=T BraDBF=F KetDBF=T FulRan=T
         wScrn=  0.000000 ICntrl=       500 IOpCl=  0 I1Cent=   200000004 NGrid=           0
         NMat0=    1 NMatS0=      1 NMatT0=    0 NMatD0=    1 NMtDS0=    0 NMtDT0=    0
 Petite list used in FoFCou.
 Requested convergence on RMS density matrix=1.00D-08 within 128 cycles.
 Requested convergence on MAX density matrix=1.00D-06.
 Requested convergence on             energy=1.00D-06.
 No special actions if energy rises.
 Inv3:  Mode=1 IEnd=    13079232.
 Iteration    1 A*A^-1 deviation from unit magnitude is 4.66D-15 for   2077.
 Iteration    1 A*A^-1 deviation from orthogonality  is 1.48D-15 for   2085   1382.
 Iteration    1 A^-1*A deviation from unit magnitude is 4.66D-15 for   2077.
 Iteration    1 A^-1*A deviation from orthogonality  is 1.27D-15 for   1864    730.
 Error on total polarization charges =  0.03238
 SCF Done:  E(RB3LYP) =  -465.640931218     A.U. after   11 cycles
            NFock= 11  Conv=0.56D-08     -V/T= 2.0076
 SMD-CDS (non-electrostatic) energy       (kcal/mol) =      -4.19
 (included in total energy above)

 **********************************************************************

            Population analysis using the SCF Density.

 **********************************************************************

 Orbital symmetries:
       Occupied  (A) (A) (A) (A) (A) (A) (A) (A) (A) (A) (A) (A)
                 (A) (A) (A) (A) (A) (A) (A) (A) (A) (A) (A) (A)
                 (A) (A) (A) (A) (A) (A) (A) (A) (A) (A) (A) (A)
                 (A) (A) (A) (A) (A) (A) (A) (A) (A)
       Virtual   (A) (A) (A) (A) (A) (A) (A) (A) (A) (A) (A) (A)
                 (A) (A) (A) (A) (A) (A) (A) (A) (A) (A) (A) (A)
                 (A) (A) (A) (A) (A) (A) (A) (A) (A) (A) (A) (A)
                 (A) (A) (A) (A) (A) (A) (A) (A) (A) (A) (A) (A)
                 (A) (A) (A) (A) (A) (A) (A) (A) (A) (A) (A) (A)
                 (A) (A) (A) (A) (A) (A) (A) (A) (A) (A) (A) (A)
                 (A) (A) (A) (A) (A) (A) (A) (A) (A) (A) (A) (A)
                 (A) (A) (A) (A) (A) (A) (A) (A) (A) (A) (A) (A)
                 (A) (A) (A) (A) (A) (A) (A) (A) (A) (A) (A) (A)
                 (A) (A) (A) (A) (A) (A) (A) (A) (A) (A) (A) (A)
                 (A) (A) (A) (A) (A) (A) (A) (A) (A) (A) (A) (A)
                 (A) (A) (A) (A) (A) (A) (A) (A) (A) (A) (A) (A)
                 (A) (A) (A) (A) (A) (A) (A) (A) (A) (A) (A) (A)
                 (A) (A) (A) (A) (A) (A) (A) (A)
 The electronic state is 1-A.
 Alpha  occ. eigenvalues --  -14.28973 -14.28952 -10.18153 -10.18133 -10.18010
 Alpha  occ. eigenvalues --  -10.18008 -10.17504 -10.17413 -10.15830 -10.15114
 Alpha  occ. eigenvalues --  -10.15093  -0.90575  -0.89068  -0.76618  -0.73173
 Alpha  occ. eigenvalues --   -0.72188  -0.68342  -0.66526  -0.62729  -0.58605
 Alpha  occ. eigenvalues --   -0.56011  -0.55560  -0.48348  -0.47893  -0.45850
 Alpha  occ. eigenvalues --   -0.45157  -0.43706  -0.42645  -0.41135  -0.40492
 Alpha  occ. eigenvalues --   -0.40325  -0.38236  -0.37464  -0.37194  -0.35917
 Alpha  occ. eigenvalues --   -0.35666  -0.34573  -0.34140  -0.33113  -0.32553
 Alpha  occ. eigenvalues --   -0.32372  -0.31186  -0.29919  -0.22217  -0.14552
 Alpha virt. eigenvalues --    0.08155   0.11064   0.11711   0.12524   0.13221
 Alpha virt. eigenvalues --    0.14301   0.15447   0.16323   0.16649   0.16840
 Alpha virt. eigenvalues --    0.17701   0.17963   0.18837   0.19421   0.19852
 Alpha virt. eigenvalues --    0.20434   0.20895   0.21510   0.22275   0.23189
 Alpha virt. eigenvalues --    0.23800   0.24093   0.25086   0.25544   0.26258
 Alpha virt. eigenvalues --    0.26963   0.27470   0.28301   0.29562   0.30466
 Alpha virt. eigenvalues --    0.31363   0.35894   0.48975   0.49570   0.51484
 Alpha virt. eigenvalues --    0.52201   0.53670   0.55167   0.56752   0.59115
 Alpha virt. eigenvalues --    0.60423   0.60595   0.61781   0.62916   0.65278
 Alpha virt. eigenvalues --    0.66138   0.67303   0.68763   0.68974   0.70675
 Alpha virt. eigenvalues --    0.72513   0.72550   0.74258   0.79397   0.79553
 Alpha virt. eigenvalues --    0.81798   0.83148   0.83654   0.85621   0.87096
 Alpha virt. eigenvalues --    0.87750   0.89179   0.89777   0.90405   0.90965
 Alpha virt. eigenvalues --    0.91589   0.93221   0.93880   0.94320   0.95586
 Alpha virt. eigenvalues --    0.95930   0.96328   0.97222   0.99146   0.99561
 Alpha virt. eigenvalues --    0.99918   1.01208   1.01592   1.02132   1.03072
 Alpha virt. eigenvalues --    1.04663   1.04938   1.07197   1.08787   1.11414
 Alpha virt. eigenvalues --    1.12991   1.15196   1.20200   1.27280   1.29344
 Alpha virt. eigenvalues --    1.34793   1.37101   1.38540   1.42326   1.43178
 Alpha virt. eigenvalues --    1.47473   1.55053   1.56724   1.62008   1.63531
 Alpha virt. eigenvalues --    1.68022   1.73566   1.76533   1.79226   1.80509
 Alpha virt. eigenvalues --    1.83693   1.89599   1.90989   1.93019   1.93399
 Alpha virt. eigenvalues --    1.94548   1.94766   1.98435   1.99435   1.99867
 Alpha virt. eigenvalues --    2.03437   2.05425   2.05824   2.06333   2.07725
 Alpha virt. eigenvalues --    2.09816   2.12018   2.13012   2.15738   2.17613
 Alpha virt. eigenvalues --    2.20879   2.22434   2.23274   2.25616   2.26744
 Alpha virt. eigenvalues --    2.28717   2.35552   2.37444   2.38281   2.39885
 Alpha virt. eigenvalues --    2.40909   2.41239   2.42583   2.45300   2.46899
 Alpha virt. eigenvalues --    2.51899   2.55110   2.56266   2.59204   2.65134
 Alpha virt. eigenvalues --    2.66018   2.67418   2.77398   2.77836   2.86189
 Alpha virt. eigenvalues --    2.86391   2.88844   2.92993   4.08651   4.18153
 Alpha virt. eigenvalues --    4.21246   4.24446   4.27841   4.32547   4.40989
 Alpha virt. eigenvalues --    4.46752   4.47664   4.57666   4.62730
          Condensed to atoms (all electrons):
               1          2          3          4          5          6
     1  C    4.952337   0.348428   0.374069   0.380211  -0.035530  -0.031961
     2  H    0.348428   0.662424  -0.034920  -0.052679  -0.004166   0.001247
     3  H    0.374069  -0.034920   0.600799  -0.041629   0.005697  -0.002091
     4  C    0.380211  -0.052679  -0.041629   5.078443   0.374559   0.349086
     5  H   -0.035530  -0.004166   0.005697   0.374559   0.588250  -0.033954
     6  H   -0.031961   0.001247  -0.002091   0.349086  -0.033954   0.615785
     7  C   -0.040879   0.004720  -0.006108   0.380265  -0.035589  -0.031889
     8  H    0.004898  -0.000286  -0.000029  -0.053285  -0.004266   0.000783
     9  H   -0.005963   0.000009   0.005133  -0.040332   0.005667  -0.002301
    10  N   -0.006882  -0.000510  -0.000878  -0.061459  -0.004779   0.004639
    11  N    0.301799  -0.041972  -0.037204  -0.060346  -0.004082   0.004811
    12  C   -0.000025   0.000024   0.000033  -0.000067   0.001295  -0.000120
    13  H    0.000001  -0.000003  -0.000000  -0.001782   0.000078   0.000064
    14  H   -0.000005  -0.000000   0.000001  -0.000019  -0.000168   0.000003
    15  H   -0.000003   0.000033   0.000005   0.002253   0.003453  -0.000184
    16  C    0.000296   0.000027  -0.000084   0.005764   0.000057  -0.000193
    17  H   -0.000008  -0.000001  -0.000007  -0.000601  -0.000012   0.000031
    18  H   -0.000048   0.000009   0.000105   0.000452   0.000003  -0.000033
    19  C   -0.000037  -0.000000   0.000006  -0.000227   0.000010   0.000003
    20  H    0.000001   0.000000  -0.000000  -0.000000  -0.000000  -0.000000
    21  H    0.000001  -0.000000  -0.000000   0.000004  -0.000000  -0.000000
    22  H   -0.000037   0.000001   0.000001  -0.000025  -0.000001   0.000001
    23  C   -0.044407  -0.019100   0.006140  -0.000112   0.001003  -0.000126
    24  H    0.007342  -0.000244  -0.000360  -0.000041  -0.000201   0.000003
    25  H   -0.016224   0.020296   0.000507  -0.001310   0.000070   0.000057
    26  H   -0.001571  -0.002766  -0.000017   0.002174   0.003311  -0.000227
    27  C   -0.046039  -0.003279  -0.009221   0.005402   0.000034  -0.000214
    28  H   -0.009409   0.007037   0.001700  -0.000524  -0.000006   0.000034
    29  H   -0.006449  -0.000785   0.005810   0.000421   0.000002  -0.000043
    30  C    0.007448  -0.000468   0.000368  -0.000246   0.000010   0.000003
    31  H   -0.000167   0.000006  -0.000038   0.000011  -0.000000  -0.000000
    32  H   -0.000266   0.000037  -0.000000  -0.000000  -0.000000  -0.000000
    33  H    0.000146   0.000030   0.000060  -0.000028  -0.000003   0.000001
               7          8          9         10         11         12
     1  C   -0.040879   0.004898  -0.005963  -0.006882   0.301799  -0.000025
     2  H    0.004720  -0.000286   0.000009  -0.000510  -0.041972   0.000024
     3  H   -0.006108  -0.000029   0.005133  -0.000878  -0.037204   0.000033
     4  C    0.380265  -0.053285  -0.040332  -0.061459  -0.060346  -0.000067
     5  H   -0.035589  -0.004266   0.005667  -0.004779  -0.004082   0.001295
     6  H   -0.031889   0.000783  -0.002301   0.004639   0.004811  -0.000120
     7  C    4.950397   0.346118   0.374980   0.309294  -0.009543  -0.048024
     8  H    0.346118   0.669085  -0.036873  -0.042716  -0.000607  -0.020156
     9  H    0.374980  -0.036873   0.599851  -0.037709  -0.000598   0.006658
    10  N    0.309294  -0.042716  -0.037709   6.889082  -0.077162   0.314318
    11  N   -0.009543  -0.000607  -0.000598  -0.077162   6.897749   0.004428
    12  C   -0.048024  -0.020156   0.006658   0.314318   0.004428   5.022505
    13  H   -0.018550   0.024476   0.000363  -0.046958  -0.000212   0.340974
    14  H    0.007006  -0.000176  -0.000331  -0.038850   0.000186   0.384086
    15  H   -0.000040  -0.003217  -0.000089  -0.044103   0.001420   0.384713
    16  C   -0.045213  -0.005280  -0.007827   0.317994   0.004190  -0.054122
    17  H   -0.010606   0.009205   0.000738  -0.048869  -0.000222  -0.015719
    18  H   -0.005637  -0.001032   0.006065  -0.043373   0.000919   0.007274
    19  C    0.007009  -0.000433   0.000367  -0.059492  -0.000169  -0.005083
    20  H   -0.000198   0.000028   0.000002  -0.000346   0.000007  -0.000986
    21  H   -0.000180   0.000011  -0.000026   0.003804  -0.000012   0.000507
    22  H    0.000002   0.000042   0.000038   0.003178   0.000741  -0.003086
    23  C    0.000162   0.000028   0.000019   0.004090   0.313237   0.000011
    24  H    0.000004   0.000000   0.000000   0.000346  -0.042906  -0.000019
    25  H   -0.000024  -0.000002   0.000001  -0.000208  -0.046605   0.000018
    26  H    0.000030   0.000015   0.000002   0.000417  -0.040303  -0.000077
    27  C    0.000478   0.000034  -0.000105   0.004639   0.315940  -0.000151
    28  H   -0.000032  -0.000001  -0.000003  -0.000198  -0.048009   0.000007
    29  H    0.000034   0.000013   0.000155   0.001105  -0.041879  -0.000022
    30  C   -0.000052   0.000001   0.000006   0.000265  -0.056203  -0.000040
    31  H   -0.000001  -0.000000  -0.000002  -0.000089   0.002999   0.000006
    32  H    0.000001   0.000000   0.000000   0.000001   0.002391   0.000000
    33  H   -0.000029   0.000000   0.000000   0.000144  -0.001232   0.000120
              13         14         15         16         17         18
     1  C    0.000001  -0.000005  -0.000003   0.000296  -0.000008  -0.000048
     2  H   -0.000003  -0.000000   0.000033   0.000027  -0.000001   0.000009
     3  H   -0.000000   0.000001   0.000005  -0.000084  -0.000007   0.000105
     4  C   -0.001782  -0.000019   0.002253   0.005764  -0.000601   0.000452
     5  H    0.000078  -0.000168   0.003453   0.000057  -0.000012   0.000003
     6  H    0.000064   0.000003  -0.000184  -0.000193   0.000031  -0.000033
     7  C   -0.018550   0.007006  -0.000040  -0.045213  -0.010606  -0.005637
     8  H    0.024476  -0.000176  -0.003217  -0.005280   0.009205  -0.001032
     9  H    0.000363  -0.000331  -0.000089  -0.007827   0.000738   0.006065
    10  N   -0.046958  -0.038850  -0.044103   0.317994  -0.048869  -0.043373
    11  N   -0.000212   0.000186   0.001420   0.004190  -0.000222   0.000919
    12  C    0.340974   0.384086   0.384713  -0.054122  -0.015719   0.007274
    13  H    0.668537  -0.041900  -0.047138  -0.012766   0.020764  -0.000585
    14  H   -0.041900   0.557677  -0.024573  -0.007835  -0.002110   0.000266
    15  H   -0.047138  -0.024573   0.569960   0.007840  -0.000702  -0.000204
    16  C   -0.012766  -0.007835   0.007840   4.909241   0.337956   0.388786
    17  H    0.020764  -0.002110  -0.000702   0.337956   0.706957  -0.053016
    18  H   -0.000585   0.000266  -0.000204   0.388786  -0.053016   0.598150
    19  C   -0.002201   0.009130   0.000078   0.369510  -0.052249  -0.033202
    20  H    0.000511   0.000238  -0.000017  -0.031657  -0.008506   0.004819
    21  H    0.000014  -0.000018  -0.000010  -0.027939   0.003537  -0.007297
    22  H    0.000782   0.000183  -0.000265  -0.037087   0.006671  -0.001343
    23  C    0.000019  -0.000007  -0.000020  -0.000125   0.000006  -0.000022
    24  H    0.000002  -0.000005  -0.000046  -0.000021   0.000000  -0.000003
    25  H   -0.000001   0.000001   0.000024   0.000006  -0.000000   0.000002
    26  H    0.000009  -0.000013   0.000229  -0.000006   0.000001  -0.000002
    27  C    0.000008  -0.000016  -0.000030  -0.000353   0.000037  -0.000126
    28  H   -0.000000   0.000000   0.000002   0.000032  -0.000001   0.000028
    29  H    0.000002  -0.000001  -0.000005  -0.000053   0.000029   0.001334
    30  C   -0.000000  -0.000017  -0.000001   0.000205  -0.000003  -0.000076
    31  H   -0.000000  -0.000001   0.000000  -0.000086  -0.000005   0.000092
    32  H    0.000000   0.000000   0.000000  -0.000000   0.000000  -0.000001
    33  H    0.000001   0.000038  -0.000003   0.000052   0.000002   0.000037
              19         20         21         22         23         24
     1  C   -0.000037   0.000001   0.000001  -0.000037  -0.044407   0.007342
     2  H   -0.000000   0.000000  -0.000000   0.000001  -0.019100  -0.000244
     3  H    0.000006  -0.000000  -0.000000   0.000001   0.006140  -0.000360
     4  C   -0.000227  -0.000000   0.000004  -0.000025  -0.000112  -0.000041
     5  H    0.000010  -0.000000  -0.000000  -0.000001   0.001003  -0.000201
     6  H    0.000003  -0.000000  -0.000000   0.000001  -0.000126   0.000003
     7  C    0.007009  -0.000198  -0.000180   0.000002   0.000162   0.000004
     8  H   -0.000433   0.000028   0.000011   0.000042   0.000028   0.000000
     9  H    0.000367   0.000002  -0.000026   0.000038   0.000019   0.000000
    10  N   -0.059492  -0.000346   0.003804   0.003178   0.004090   0.000346
    11  N   -0.000169   0.000007  -0.000012   0.000741   0.313237  -0.042906
    12  C   -0.005083  -0.000986   0.000507  -0.003086   0.000011  -0.000019
    13  H   -0.002201   0.000511   0.000014   0.000782   0.000019   0.000002
    14  H    0.009130   0.000238  -0.000018   0.000183  -0.000007  -0.000005
    15  H    0.000078  -0.000017  -0.000010  -0.000265  -0.000020  -0.000046
    16  C    0.369510  -0.031657  -0.027939  -0.037087  -0.000125  -0.000021
    17  H   -0.052249  -0.008506   0.003537   0.006671   0.000006   0.000000
    18  H   -0.033202   0.004819  -0.007297  -0.001343  -0.000022  -0.000003
    19  C    5.144149   0.377385   0.368705   0.373005  -0.000001   0.000003
    20  H    0.377385   0.568101  -0.029330  -0.030650  -0.000000  -0.000000
    21  H    0.368705  -0.029330   0.570241  -0.025979   0.000001   0.000000
    22  H    0.373005  -0.030650  -0.025979   0.529634   0.000009  -0.000104
    23  C   -0.000001  -0.000000   0.000001   0.000009   5.023707   0.384280
    24  H    0.000003  -0.000000   0.000000  -0.000104   0.384280   0.565859
    25  H   -0.000001   0.000000  -0.000000   0.000006   0.337288  -0.045403
    26  H   -0.000002   0.000000   0.000000   0.000001   0.384665  -0.025311
    27  C    0.000136  -0.000002   0.000002  -0.000352  -0.053626  -0.004682
    28  H   -0.000013   0.000000  -0.000000   0.000035  -0.017237  -0.002369
    29  H   -0.000051  -0.000000  -0.000008  -0.000047   0.007278   0.000139
    30  C   -0.003185   0.000078  -0.000025   0.000802  -0.006050   0.006847
    31  H    0.000235   0.000018   0.000703   0.000138   0.000350   0.000042
    32  H    0.000122  -0.000002  -0.000002   0.000038  -0.000192  -0.001066
    33  H   -0.001992   0.000033  -0.000076   0.006719  -0.002875   0.003201
              25         26         27         28         29         30
     1  C   -0.016224  -0.001571  -0.046039  -0.009409  -0.006449   0.007448
     2  H    0.020296  -0.002766  -0.003279   0.007037  -0.000785  -0.000468
     3  H    0.000507  -0.000017  -0.009221   0.001700   0.005810   0.000368
     4  C   -0.001310   0.002174   0.005402  -0.000524   0.000421  -0.000246
     5  H    0.000070   0.003311   0.000034  -0.000006   0.000002   0.000010
     6  H    0.000057  -0.000227  -0.000214   0.000034  -0.000043   0.000003
     7  C   -0.000024   0.000030   0.000478  -0.000032   0.000034  -0.000052
     8  H   -0.000002   0.000015   0.000034  -0.000001   0.000013   0.000001
     9  H    0.000001   0.000002  -0.000105  -0.000003   0.000155   0.000006
    10  N   -0.000208   0.000417   0.004639  -0.000198   0.001105   0.000265
    11  N   -0.046605  -0.040303   0.315940  -0.048009  -0.041879  -0.056203
    12  C    0.000018  -0.000077  -0.000151   0.000007  -0.000022  -0.000040
    13  H   -0.000001   0.000009   0.000008  -0.000000   0.000002  -0.000000
    14  H    0.000001  -0.000013  -0.000016   0.000000  -0.000001  -0.000017
    15  H    0.000024   0.000229  -0.000030   0.000002  -0.000005  -0.000001
    16  C    0.000006  -0.000006  -0.000353   0.000032  -0.000053   0.000205
    17  H   -0.000000   0.000001   0.000037  -0.000001   0.000029  -0.000003
    18  H    0.000002  -0.000002  -0.000126   0.000028   0.001334  -0.000076
    19  C   -0.000001  -0.000002   0.000136  -0.000013  -0.000051  -0.003185
    20  H    0.000000   0.000000  -0.000002   0.000000  -0.000000   0.000078
    21  H   -0.000000   0.000000   0.000002  -0.000000  -0.000008  -0.000025
    22  H    0.000006   0.000001  -0.000352   0.000035  -0.000047   0.000802
    23  C    0.337288   0.384665  -0.053626  -0.017237   0.007278  -0.006050
    24  H   -0.045403  -0.025311  -0.004682  -0.002369   0.000139   0.006847
    25  H    0.672250  -0.043240  -0.014981   0.024174  -0.000500  -0.002852
    26  H   -0.043240   0.564891   0.007451  -0.000496  -0.000233   0.000121
    27  C   -0.014981   0.007451   4.914884   0.346791   0.389926   0.358784
    28  H    0.024174  -0.000496   0.346791   0.693779  -0.050078  -0.056828
    29  H   -0.000500  -0.000233   0.389926  -0.050078   0.591758  -0.034784
    30  C   -0.002852   0.000121   0.358784  -0.056828  -0.034784   5.143065
    31  H    0.000014  -0.000009  -0.028401   0.004454  -0.009882   0.377325
    32  H    0.000611  -0.000007  -0.030890  -0.006767   0.003961   0.368984
    33  H    0.000937  -0.000298  -0.038988   0.004933   0.002181   0.381457
              31         32         33
     1  C   -0.000167  -0.000266   0.000146
     2  H    0.000006   0.000037   0.000030
     3  H   -0.000038  -0.000000   0.000060
     4  C    0.000011  -0.000000  -0.000028
     5  H   -0.000000  -0.000000  -0.000003
     6  H   -0.000000  -0.000000   0.000001
     7  C   -0.000001   0.000001  -0.000029
     8  H   -0.000000   0.000000   0.000000
     9  H   -0.000002   0.000000   0.000000
    10  N   -0.000089   0.000001   0.000144
    11  N    0.002999   0.002391  -0.001232
    12  C    0.000006   0.000000   0.000120
    13  H   -0.000000   0.000000   0.000001
    14  H   -0.000001   0.000000   0.000038
    15  H    0.000000   0.000000  -0.000003
    16  C   -0.000086  -0.000000   0.000052
    17  H   -0.000005   0.000000   0.000002
    18  H    0.000092  -0.000001   0.000037
    19  C    0.000235   0.000122  -0.001992
    20  H    0.000018  -0.000002   0.000033
    21  H    0.000703  -0.000002  -0.000076
    22  H    0.000138   0.000038   0.006719
    23  C    0.000350  -0.000192  -0.002875
    24  H    0.000042  -0.001066   0.003201
    25  H    0.000014   0.000611   0.000937
    26  H   -0.000009  -0.000007  -0.000298
    27  C   -0.028401  -0.030890  -0.038988
    28  H    0.004454  -0.006767   0.004933
    29  H   -0.009882   0.003961   0.002181
    30  C    0.377325   0.368984   0.381457
    31  H    0.559308  -0.030113  -0.026492
    32  H   -0.030113   0.577068  -0.028561
    33  H   -0.026492  -0.028561   0.522600
 Mulliken charges:
               1
     1  C   -0.131066
     2  H    0.116851
     3  H    0.132152
     4  C   -0.264333
     5  H    0.139257
     6  H    0.126787
     7  C   -0.127907
     8  H    0.113622
     9  H    0.132105
    10  N   -0.338735
    11  N   -0.341552
    12  C   -0.319279
    13  H    0.115490
    14  H    0.157231
    15  H    0.150642
    16  C   -0.111309
    17  H    0.106704
    18  H    0.137659
    19  C   -0.491516
    20  H    0.150476
    21  H    0.143373
    22  H    0.176949
    23  C   -0.318392
    24  H    0.154710
    25  H    0.115090
    26  H    0.151259
    27  C   -0.113090
    28  H    0.108965
    29  H    0.140672
    30  C   -0.484939
    31  H    0.149586
    32  H    0.144652
    33  H    0.177886
 Sum of Mulliken charges =  -0.00000
 Mulliken charges with hydrogens summed into heavy atoms:
               1
     1  C    0.117937
     4  C    0.001712
     7  C    0.117820
    10  N   -0.338735
    11  N   -0.341552
    12  C    0.104084
    16  C    0.133054
    19  C   -0.020719
    23  C    0.102667
    27  C    0.136547
    30  C   -0.012814
 Electronic spatial extent (au):  <R**2>=           2026.4590
 Charge=             -0.0000 electrons
 Dipole moment (field-independent basis, Debye):
    X=             -0.0517    Y=             -0.2887    Z=             -0.3251  Tot=              0.4379
 Quadrupole moment (field-independent basis, Debye-Ang):
   XX=            -72.8040   YY=            -72.1795   ZZ=            -69.9047
   XY=              0.1567   XZ=             -0.0358   YZ=             -0.4058
 Traceless Quadrupole moment (field-independent basis, Debye-Ang):
   XX=             -1.1746   YY=             -0.5500   ZZ=              1.7247
   XY=              0.1567   XZ=             -0.0358   YZ=             -0.4058
 Octapole moment (field-independent basis, Debye-Ang**2):
  XXX=             -0.1008  YYY=             -3.6684  ZZZ=             -0.2234  XYY=             -0.6864
  XXY=              1.5318  XXZ=              2.3409  XZZ=              0.0946  YZZ=             -0.0184
  YYZ=             -1.0268  XYZ=             -0.1034
 Hexadecapole moment (field-independent basis, Debye-Ang**3):
 XXXX=          -1352.2061 YYYY=          -1068.4601 ZZZZ=           -391.8746 XXXY=             -1.6632
 XXXZ=              3.3032 YYYX=              1.0267 YYYZ=             -5.5189 ZZZX=             -0.8316
 ZZZY=             -0.9610 XXYY=           -401.9866 XXZZ=           -293.0281 YYZZ=           -233.9702
 XXYZ=              2.2443 YYXZ=             -2.2972 ZZXY=              2.3277
 N-N= 7.303312356894D+02 E-N=-2.539844300790D+03  KE= 4.621072325455D+02
 D1PCM: PCM CHGder 1st derivatives, ID1Alg=3 FixD1E=F DoIter=F DoCFld=F I1PDM=0.
 Calling FoFJK, ICntrl=      2127 FMM=F ISym2X=0 I1Cent= 0 IOpClX= 0 NMat=1 NMatS=1 NMatT=0.
 ***** Axes restored to original set *****
 -------------------------------------------------------------------
 Center     Atomic                   Forces (Hartrees/Bohr)
 Number     Number              X              Y              Z
 -------------------------------------------------------------------
      1        6           0.024513374   -0.008383493    0.025237756
      2        1           0.000887449    0.014281194   -0.020282681
      3        1          -0.017491641    0.001482158   -0.000874606
      4        6          -0.021371585   -0.021052221   -0.000067624
      5        1           0.018099371    0.003297592   -0.000182201
      6        1          -0.002988788    0.019823293    0.000068897
      7        6           0.024705094   -0.010164845   -0.026631233
      8        1           0.001352533    0.014567321    0.021013647
      9        1          -0.017738256    0.000731217    0.000650066
     10        7          -0.008225547    0.001064469    0.035466387
     11        7          -0.007339422    0.002924648   -0.034396593
     12        6          -0.025633466   -0.000610372   -0.019125159
     13        1           0.004407534    0.008467272    0.025843851
     14        1           0.008723562   -0.012905778    0.000602263
     15        1           0.013643013    0.008543414   -0.007450747
     16        6           0.032100476   -0.012651229   -0.015963284
     17        1          -0.010179453    0.004756784    0.025289877
     18        1          -0.014811343    0.004798641   -0.008308112
     19        6          -0.010715174    0.019958815    0.005758022
     20        1           0.009476633   -0.009182138    0.012511904
     21        1          -0.011757055   -0.014403435    0.001235063
     22        1           0.007058669   -0.004371055   -0.012061717
     23        6          -0.024505267    0.000383176    0.019935133
     24        1           0.009778959   -0.013175949   -0.000745711
     25        1           0.001865526    0.005453304   -0.027194678
     26        1           0.013258077    0.009918397    0.005401592
     27        6           0.032557177   -0.010767594    0.015631630
     28        1          -0.010250459    0.004873887   -0.024533016
     29        1          -0.013938180    0.005946312    0.007616963
     30        6          -0.011027007    0.017018762   -0.006226219
     31        1          -0.009147032   -0.013339944    0.007395121
     32        1           0.003570130   -0.012410046   -0.013776395
     33        1           0.011122099   -0.004872557    0.008161802
 -------------------------------------------------------------------
 Cartesian Forces:  Max     0.035466387 RMS     0.014654398

 GradGradGradGradGradGradGradGradGradGradGradGradGradGradGradGradGradGrad
 Berny optimization.
 FormGI is forming the generalized inverse of G from B-inverse, IUseBI=4.
 Internal  Forces:  Max     0.101464426 RMS     0.017140477
 Search for a local minimum.
 Step number   1 out of a maximum of  174
 All quantities printed in internal units (Hartrees-Bohrs-Radians)
 Mixed Optimization -- RFO/linear search
 Second derivative matrix not updated -- first step.
 ITU=  0
     Eigenvalues ---    0.00237   0.00237   0.00237   0.00237   0.00766
     Eigenvalues ---    0.00766   0.00766   0.00766   0.00766   0.00766
     Eigenvalues ---    0.03189   0.03190   0.03840   0.04502   0.04502
     Eigenvalues ---    0.04502   0.04502   0.04896   0.05496   0.05496
     Eigenvalues ---    0.05496   0.05496   0.05720   0.05720   0.05720
     Eigenvalues ---    0.05720   0.07537   0.07537   0.07537   0.07537
     Eigenvalues ---    0.07655   0.08860   0.08860   0.08860   0.08860
     Eigenvalues ---    0.11701   0.12453   0.12453   0.12453   0.12453
     Eigenvalues ---    0.16000   0.16000   0.16000   0.16000   0.16000
     Eigenvalues ---    0.16000   0.16000   0.16000   0.16000   0.16000
     Eigenvalues ---    0.16000   0.16000   0.16274   0.16276   0.16276
     Eigenvalues ---    0.16276   0.21948   0.21985   0.21985   0.21985
     Eigenvalues ---    0.21985   0.28519   0.28519   0.28519   0.28519
     Eigenvalues ---    0.35740   0.35740   0.35740   0.35740   0.35740
     Eigenvalues ---    0.35740   0.37230   0.37230   0.37230   0.37230
     Eigenvalues ---    0.37230   0.37230   0.37230   0.37230   0.37230
     Eigenvalues ---    0.37230   0.37230   0.37230   0.37230   0.37230
     Eigenvalues ---    0.37230   0.37230   0.37230   0.37230   0.37230
     Eigenvalues ---    0.37230   0.37230   0.37230
 RFO step:  Lambda=-1.38835293D-01 EMin= 2.36824208D-03
 Linear search not attempted -- first point.
 Maximum step size (   0.300) exceeded in Quadratic search.
    -- Step size scaled by   0.534
 Iteration  1 RMS(Cart)=  0.34668205 RMS(Int)=  0.00978544
 Iteration  2 RMS(Cart)=  0.11146447 RMS(Int)=  0.00118877
 Iteration  3 RMS(Cart)=  0.00291452 RMS(Int)=  0.00062028
 Iteration  4 RMS(Cart)=  0.00000219 RMS(Int)=  0.00062028
 Iteration  5 RMS(Cart)=  0.00000000 RMS(Int)=  0.00062028
 Variable       Old X    -DE/DX   Delta X   Delta X   Delta X     New X
                                 (Linear)    (Quad)   (Total)
    R1        2.02201   0.02359   0.00000   0.02463   0.02463   2.04663
    R2        2.02201   0.01749   0.00000   0.01826   0.01826   2.04027
    R3        2.91018   0.03059   0.00000   0.03850   0.03850   2.94867
    R4        2.77790   0.00622   0.00000   0.00669   0.00669   2.78459
    R5        2.02201   0.01810   0.00000   0.01890   0.01890   2.04090
    R6        2.02201   0.01969   0.00000   0.02055   0.02055   2.04256
    R7        2.91018   0.03156   0.00000   0.03972   0.03972   2.94990
    R8        2.02201   0.02448   0.00000   0.02555   0.02555   2.04756
    R9        2.02201   0.01774   0.00000   0.01852   0.01852   2.04053
   R10        2.77790   0.00421   0.00000   0.00453   0.00453   2.78242
   R11        2.77790   0.00078   0.00000   0.00084   0.00084   2.77874
   R12        2.77790   0.00964   0.00000   0.01037   0.01037   2.78826
   R13        2.77790   0.00161   0.00000   0.00173   0.00173   2.77963
   R14        2.77790   0.00835   0.00000   0.00898   0.00898   2.78688
   R15        2.02201   0.02649   0.00000   0.02765   0.02765   2.04966
   R16        2.02201   0.01490   0.00000   0.01556   0.01556   2.03757
   R17        2.02201   0.01760   0.00000   0.01837   0.01837   2.04038
   R18        2.02201   0.02642   0.00000   0.02758   0.02758   2.04959
   R19        2.02201   0.01729   0.00000   0.01806   0.01806   2.04006
   R20        2.91018   0.00546   0.00000   0.00687   0.00687   2.91705
   R21        2.02201   0.01721   0.00000   0.01797   0.01797   2.03997
   R22        2.02201   0.01807   0.00000   0.01887   0.01887   2.04088
   R23        2.02201   0.01442   0.00000   0.01505   0.01505   2.03706
   R24        2.02201   0.01578   0.00000   0.01647   0.01647   2.03848
   R25        2.02201   0.02670   0.00000   0.02788   0.02788   2.04988
   R26        2.02201   0.01730   0.00000   0.01806   0.01806   2.04007
   R27        2.02201   0.02611   0.00000   0.02726   0.02726   2.04927
   R28        2.02201   0.01653   0.00000   0.01726   0.01726   2.03927
   R29        2.91018   0.01095   0.00000   0.01378   0.01378   2.92396
   R30        2.02201   0.01694   0.00000   0.01769   0.01769   2.03970
   R31        2.02201   0.01791   0.00000   0.01869   0.01869   2.04070
   R32        2.02201   0.01390   0.00000   0.01451   0.01451   2.03651
    A1        1.91063   0.00780   0.00000  -0.00241  -0.00377   1.90686
    A2        1.91063  -0.02258   0.00000  -0.03625  -0.03548   1.87515
    A3        1.91063  -0.02838   0.00000  -0.04629  -0.04556   1.86507
    A4        1.91063  -0.01960   0.00000  -0.02361  -0.02512   1.88551
    A5        1.91063  -0.01539   0.00000  -0.01194  -0.01305   1.89758
    A6        1.91063   0.07815   0.00000   0.12051   0.12050   2.03113
    A7        1.91063  -0.02166   0.00000  -0.01792  -0.02118   1.88946
    A8        1.91063  -0.03615   0.00000  -0.06251  -0.06008   1.85055
    A9        1.91063   0.10146   0.00000   0.15629   0.15620   2.06683
   A10        1.91063   0.01404   0.00000   0.00427   0.00201   1.91264
   A11        1.91063  -0.02056   0.00000  -0.01559  -0.01872   1.89191
   A12        1.91063  -0.03713   0.00000  -0.06454  -0.06216   1.84847
   A13        1.91063  -0.02383   0.00000  -0.03800  -0.03726   1.87337
   A14        1.91063  -0.01962   0.00000  -0.02335  -0.02475   1.88588
   A15        1.91063   0.08103   0.00000   0.12483   0.12486   2.03549
   A16        1.91063   0.00837   0.00000  -0.00170  -0.00317   1.90746
   A17        1.91063  -0.02839   0.00000  -0.04556  -0.04485   1.86579
   A18        1.91063  -0.01757   0.00000  -0.01621  -0.01737   1.89326
   A19        1.91056  -0.00240   0.00000  -0.00429  -0.00428   1.90627
   A20        1.91063  -0.00130   0.00000  -0.00235  -0.00234   1.90830
   A21        1.91063   0.00363   0.00000   0.00638   0.00637   1.91701
   A22        1.91063  -0.00414   0.00000  -0.00754  -0.00754   1.90309
   A23        1.91063   0.00195   0.00000   0.00324   0.00324   1.91388
   A24        1.91063   0.00173   0.00000   0.00284   0.00285   1.91348
   A25        1.91063   0.01054   0.00000   0.01954   0.01948   1.93011
   A26        1.91063   0.00307   0.00000   0.00532   0.00527   1.91590
   A27        1.91063   0.00006   0.00000  -0.00046  -0.00047   1.91016
   A28        1.91063  -0.00482   0.00000  -0.00750  -0.00759   1.90304
   A29        1.91063  -0.00469   0.00000  -0.00804  -0.00807   1.90257
   A30        1.91063  -0.00415   0.00000  -0.00887  -0.00887   1.90176
   A31        1.91063  -0.00110   0.00000   0.00292   0.00288   1.91352
   A32        1.91063  -0.00947   0.00000  -0.01626  -0.01628   1.89436
   A33        1.91063   0.01990   0.00000   0.03124   0.03121   1.94184
   A34        1.91063   0.00035   0.00000  -0.00489  -0.00496   1.90567
   A35        1.91063  -0.00725   0.00000  -0.01046  -0.01062   1.90001
   A36        1.91063  -0.00244   0.00000  -0.00254  -0.00248   1.90816
   A37        1.91063   0.00712   0.00000   0.01291   0.01287   1.92350
   A38        1.91063   0.00399   0.00000   0.00683   0.00681   1.91744
   A39        1.91063   0.00111   0.00000   0.00209   0.00208   1.91271
   A40        1.91063  -0.00583   0.00000  -0.01063  -0.01067   1.89996
   A41        1.91063  -0.00335   0.00000  -0.00539  -0.00542   1.90521
   A42        1.91063  -0.00305   0.00000  -0.00581  -0.00582   1.90482
   A43        1.91063   0.00405   0.00000   0.00713   0.00707   1.91770
   A44        1.91063   0.01065   0.00000   0.01970   0.01963   1.93026
   A45        1.91063  -0.00067   0.00000  -0.00177  -0.00177   1.90886
   A46        1.91063  -0.00530   0.00000  -0.00832  -0.00843   1.90220
   A47        1.91063  -0.00408   0.00000  -0.00865  -0.00864   1.90199
   A48        1.91063  -0.00464   0.00000  -0.00809  -0.00811   1.90252
   A49        1.91063  -0.00272   0.00000  -0.00067  -0.00075   1.90988
   A50        1.91063  -0.00908   0.00000  -0.01551  -0.01555   1.89509
   A51        1.91063   0.02010   0.00000   0.03156   0.03153   1.94216
   A52        1.91063   0.00020   0.00000  -0.00524  -0.00532   1.90531
   A53        1.91063  -0.00577   0.00000  -0.00735  -0.00747   1.90316
   A54        1.91063  -0.00273   0.00000  -0.00279  -0.00271   1.90792
   A55        1.91063   0.00528   0.00000   0.00919   0.00915   1.91978
   A56        1.91063   0.00679   0.00000   0.01237   0.01231   1.92294
   A57        1.91063   0.00368   0.00000   0.00657   0.00653   1.91716
   A58        1.91063  -0.00602   0.00000  -0.01074  -0.01080   1.89984
   A59        1.91063  -0.00513   0.00000  -0.00964  -0.00967   1.90097
   A60        1.91063  -0.00460   0.00000  -0.00775  -0.00780   1.90283
    D1       -1.04739   0.00222   0.00000   0.00024   0.00064  -1.04676
    D2        1.04700  -0.01599   0.00000  -0.04378  -0.04265   1.00435
    D3        3.14140  -0.02147   0.00000  -0.06540  -0.06586   3.07554
    D4        3.14140   0.01850   0.00000   0.03985   0.03973  -3.10206
    D5       -1.04739   0.00029   0.00000  -0.00417  -0.00356  -1.05095
    D6        1.04700  -0.00519   0.00000  -0.02579  -0.02677   1.02023
    D7        1.04700   0.00149   0.00000  -0.00486  -0.00501   1.04199
    D8        3.14140  -0.01672   0.00000  -0.04888  -0.04830   3.09310
    D9       -1.04739  -0.02221   0.00000  -0.07050  -0.07151  -1.11890
   D10        0.42447   0.00902   0.00000   0.02074   0.02017   0.44464
   D11       -1.66992   0.00825   0.00000   0.01989   0.01933  -1.65060
   D12        2.51887  -0.00823   0.00000  -0.01788  -0.01802   2.50084
   D13        0.42447  -0.00900   0.00000  -0.01873  -0.01886   0.40561
   D14       -1.66992   0.00620   0.00000   0.01969   0.02039  -1.64953
   D15        2.51887   0.00543   0.00000   0.01884   0.01955   2.53841
   D16        3.14156   0.02078   0.00000   0.06301   0.06357  -3.07806
   D17       -1.04723   0.00443   0.00000   0.02336   0.02442  -1.02281
   D18        1.04716   0.02052   0.00000   0.06565   0.06682   1.11398
   D19        1.04716  -0.00224   0.00000  -0.00121  -0.00171   1.04545
   D20        3.14156  -0.01859   0.00000  -0.04087  -0.04085   3.10070
   D21       -1.04723  -0.00249   0.00000   0.00143   0.00154  -1.04569
   D22       -1.04723   0.01590   0.00000   0.04263   0.04145  -1.00579
   D23        1.04716  -0.00045   0.00000   0.00298   0.00230   1.04946
   D24        3.14156   0.01564   0.00000   0.04527   0.04470  -3.09693
   D25        1.58484  -0.00752   0.00000  -0.02299  -0.02360   1.56124
   D26       -2.60399  -0.00536   0.00000  -0.01925  -0.01985  -2.62385
   D27       -0.50955  -0.01057   0.00000  -0.02499  -0.02441  -0.53396
   D28        1.58480  -0.00840   0.00000  -0.02124  -0.02066   1.56414
   D29       -2.60395   0.00731   0.00000   0.01492   0.01494  -2.58901
   D30       -0.50960   0.00948   0.00000   0.01867   0.01869  -0.49090
   D31        0.95793  -0.00005   0.00000   0.00121   0.00118   0.95911
   D32        3.05233   0.00237   0.00000   0.00725   0.00729   3.05961
   D33       -1.13646  -0.00079   0.00000  -0.00063  -0.00065  -1.13711
   D34       -1.13642   0.00080   0.00000   0.00281   0.00278  -1.13363
   D35        0.95798   0.00322   0.00000   0.00885   0.00889   0.96687
   D36        3.05237   0.00006   0.00000   0.00096   0.00095   3.05333
   D37       -1.09403   0.00433   0.00000   0.01129   0.01135  -1.08268
   D38        1.00037  -0.00170   0.00000  -0.00286  -0.00280   0.99757
   D39        3.09476   0.00170   0.00000   0.00320   0.00308   3.09784
   D40        1.00027   0.00281   0.00000   0.00851   0.00857   1.00884
   D41        3.09467  -0.00322   0.00000  -0.00565  -0.00559   3.08908
   D42       -1.09412   0.00018   0.00000   0.00041   0.00029  -1.09384
   D43        3.08679  -0.00236   0.00000  -0.00539  -0.00544   3.08135
   D44       -1.10200   0.00015   0.00000   0.00084   0.00088  -1.10112
   D45        0.99240   0.00057   0.00000   0.00191   0.00192   0.99432
   D46       -1.10200  -0.00145   0.00000  -0.00431  -0.00435  -1.10635
   D47        0.99240   0.00105   0.00000   0.00193   0.00197   0.99436
   D48        3.08679   0.00148   0.00000   0.00300   0.00301   3.08980
   D49        1.15350  -0.00521   0.00000  -0.01251  -0.01253   1.14098
   D50       -0.94089   0.00177   0.00000   0.00381   0.00374  -0.93715
   D51       -3.03529  -0.00163   0.00000  -0.00261  -0.00251  -3.03780
   D52       -0.94089  -0.00238   0.00000  -0.00700  -0.00702  -0.94791
   D53       -3.03529   0.00460   0.00000   0.00932   0.00925  -3.02604
   D54        1.15351   0.00119   0.00000   0.00291   0.00300   1.15650
   D55        1.58387   0.00240   0.00000   0.00561   0.00557   1.58943
   D56       -2.60492   0.00206   0.00000   0.00468   0.00465  -2.60027
   D57       -0.51053   0.00145   0.00000   0.00303   0.00298  -0.50755
   D58       -0.51053  -0.00401   0.00000  -0.01068  -0.01065  -0.52118
   D59        1.58387  -0.00435   0.00000  -0.01161  -0.01156   1.57230
   D60       -2.60492  -0.00495   0.00000  -0.01326  -0.01324  -2.61816
   D61       -2.60492   0.00149   0.00000   0.00327   0.00327  -2.60165
   D62       -0.51053   0.00115   0.00000   0.00234   0.00236  -0.50817
   D63        1.58387   0.00055   0.00000   0.00069   0.00069   1.58456
   D64        2.16172  -0.00180   0.00000  -0.00418  -0.00416   2.15755
   D65       -2.02707  -0.00178   0.00000  -0.00413  -0.00410  -2.03117
   D66        0.06732  -0.00101   0.00000  -0.00202  -0.00199   0.06533
   D67       -2.02707   0.00364   0.00000   0.00982   0.00981  -2.01727
   D68        0.06732   0.00366   0.00000   0.00987   0.00987   0.07719
   D69        2.16172   0.00444   0.00000   0.01198   0.01198   2.17370
   D70        0.06732  -0.00132   0.00000  -0.00280  -0.00283   0.06450
   D71        2.16172  -0.00130   0.00000  -0.00275  -0.00276   2.15895
   D72       -2.02707  -0.00052   0.00000  -0.00064  -0.00065  -2.02772
         Item               Value     Threshold  Converged?
 Maximum Force            0.101464     0.000450     NO 
 RMS     Force            0.017140     0.000300     NO 
 Maximum Displacement     1.773359     0.001800     NO 
 RMS     Displacement     0.453412     0.001200     NO 
 Predicted change in Energy=-6.305855D-02
 GradGradGradGradGradGradGradGradGradGradGradGradGradGradGradGradGradGrad

                          Input orientation:                          
 ---------------------------------------------------------------------
 Center     Atomic      Atomic             Coordinates (Angstroms)
 Number     Number       Type             X           Y           Z
 ---------------------------------------------------------------------
      1          6           0       -2.657525    0.998195   -0.094625
      2          1           0       -2.301526    1.626030   -0.902119
      3          1           0       -3.737107    0.986983   -0.101755
      4          6           0       -2.190080    1.648733    1.244425
      5          1           0       -1.111242    1.698397    1.237970
      6          1           0       -2.598846    2.649326    1.248793
      7          6           0       -2.645174    0.994714    2.586786
      8          1           0       -2.278464    1.620715    3.391564
      9          1           0       -3.724774    0.985675    2.605508
     10          7           0       -2.162433   -0.370672    2.852551
     11          7           0       -2.168528   -0.365132   -0.365809
     12          6           0       -0.876168   -0.299932    3.561583
     13          1           0       -0.968453    0.300635    4.460045
     14          1           0       -0.554493   -1.292483    3.833529
     15          1           0       -0.133834    0.144902    2.915932
     16          6           0       -3.151979   -1.086200    3.680728
     17          1           0       -3.261635   -0.581971    4.634708
     18          1           0       -4.100281   -1.079605    3.164862
     19          6           0       -2.718598   -2.545828    3.934643
     20          1           0       -2.139413   -2.610148    4.843347
     21          1           0       -3.590397   -3.175952    4.030974
     22          1           0       -2.120329   -2.894166    3.108359
     23          6           0       -0.954135   -0.283875   -1.191787
[...]
 9640,0.12493096,-0.00258934,0.00390131,-0.00005890,0.00033730,0.000006
 34,0.00123688,0.00020638,-0.00013061,-0.00001025,0.00000608,-0.0004462
 3,0.00008161,0.00023712,-0.00001352,0.00004963,0.00011074,-0.00014554,
 -0.00013650,0.00004366,-0.00003923,0.00015605,-0.00000593,0.00001965,0
 .00000843,0.00000468,0.00001291,-0.00002148,0.00002241,0.00011571,0.00
 000573,-0.02068847,0.00203082,-0.02429429,-0.00011246,-0.00005929,-0.0
 0001831,0.00001696,0.00003890,-0.00003136,0.00000268,0.00005257,-0.000
 08697,0.00012959,-0.00006729,0.00012551,-0.00001286,-0.00003247,-0.000
 01421,0.00000948,0.00001369,0.00000182,-0.00000184,0.00000738,-0.00000
 443,-0.00001770,-0.00001759,-0.00002720,-0.00000870,0.00000243,-0.0000
 1134,0.00000175,0.00001227,0.00001768,0.00003353,0.00000745,0.00000438
 ,0.00145240,0.00293923,-0.00459109,-0.00012266,-0.00020813,0.00030866,
 0.00173913,0.00016920,0.00132414,0.00025136,-0.00009353,0.00016381,0.0
 3926940,-0.07997069,0.06098133,-0.04240418,0.08642955,-0.00194963,0.00
 230656,0.00177784,0.00066551,-0.00136106,-0.00001126,0.00025741,0.0002
 4258,-0.00034045,0.00027493,-0.00047221,0.00009338,0.00012811,0.000192
 64,0.00019264,0.00004550,-0.00024334,-0.00019422,-0.00001790,0.0001619
 2,0.00020794,-0.00002848,-0.00003481,-0.00006628,0.00004656,-0.0000130
 3,-0.00003603,-0.00002265,-0.00008410,-0.00022927,-0.01615954,-0.00773
 082,-0.01529057,-0.00011312,0.00000758,0.00014409,-0.00000356,-0.00001
 746,-0.00014929,0.00002220,0.00001117,-0.00002477,0.00027704,-0.000006
 97,0.00012808,-0.00011660,-0.00005227,0.00019218,-0.00000704,-0.000005
 82,-0.00008466,0.00003115,-0.00000898,-0.00002136,0.00003776,0.0000136
 4,-0.00001278,0.00000199,-0.00000742,0.00001583,0.00001003,0.00000733,
 -0.00003912,-0.00003879,-0.00001824,0.00001375,0.00371573,0.00021432,0
 .00077645,-0.00021196,0.00013768,0.00017271,-0.00141339,-0.00140884,0.
 00137379,0.00002053,-0.00032248,0.00016423,-0.08473516,0.06442300,-0.1
 8226463,0.10459111,-0.06088058,0.20267995,-0.00006209,0.00234224,0.000
 98066,0.00022824,-0.00011695,0.00002581,0.00115381,0.00027204,-0.00008
 198,0.00010129,0.00028015,-0.00030095,0.00011150,0.00003174,0.00007787
 ,0.00005518,0.00005927,0.00002848,0.00003027,-0.00040562,0.00008021,0.
 00004082,0.00013507,-0.00000518,-0.00000321,0.00002748,-0.00001441,0.0
 0015098,0.00036837,0.00031447,-0.01885765,-0.01098959,0.01407755,-0.00
 033830,-0.00001720,-0.00007015,0.00007150,0.00004696,0.00004936,-0.000
 02756,0.00003388,-0.00007438,0.00003282,-0.00003349,0.00002113,0.00013
 866,0.00004806,-0.00016717,0.00000241,0.00002164,0.00011294,-0.0000196
 5,0.00001011,0.00000629,-0.00008514,-0.00004202,-0.00005768,-0.0000018
 6,0.00000124,-0.00001572,0.00000261,0.00001247,0.00004681,0.00008357,0
 .00003113,0.00000832,-0.00022553,-0.00281142,-0.00312365,0.00012824,0.
 00025997,-0.00002207,0.00003301,-0.00026239,0.00035324,-0.00072900,-0.
 00069805,0.00094576,-0.15042424,-0.04584661,0.11288141,0.01204989,0.00
 508798,-0.01229004,0.16781894,-0.00299720,-0.00069645,0.00196886,0.000
 34740,0.00001040,-0.00016792,0.00080800,-0.00112060,-0.00088422,0.0001
 2280,0.00008854,0.00003830,0.00008444,0.00010013,0.00013611,0.00002289
 ,0.00004835,0.00003913,-0.00001374,-0.00006008,-0.00006125,0.00004117,
 0.00002469,0.00004293,0.00002417,-0.00001532,-0.00003722,0.00010412,0.
 00002594,0.00016504,-0.01992181,-0.01238895,0.01564500,-0.00014630,0.0
 0004426,0.00000082,0.00005410,-0.00000454,0.00001002,0.00002102,-0.000
 00623,0.00001399,0.00004289,0.00001719,0.00001731,0.00004525,0.0000469
 6,-0.00009723,0.00000660,-0.00001178,0.00005234,0.00001153,-0.00001406
 ,-0.00001170,0.00000283,-0.00000188,0.00001265,0.00001320,-0.00000642,
 0.00001209,-0.00000105,-0.00000980,0.00000159,-0.00000944,0.00002884,-
 0.00001033,-0.00201266,-0.00425106,-0.00336755,-0.00000516,0.00015729,
 -0.00006543,0.00029050,0.00013994,-0.00010738,-0.00135356,-0.00052511,
 0.00093499,-0.04354307,-0.06762974,0.05182677,-0.00638402,-0.00278616,
 0.00942186,0.05350940,0.08472852,-0.00087857,-0.00162002,0.00049001,0.
 00011541,0.00003789,-0.00014070,-0.00034338,-0.00051557,0.00047044,-0.
 00039941,0.00001248,0.00033896,-0.00011769,-0.00004939,-0.00006350,-0.
 00002386,0.00000918,0.00002089,0.00011514,-0.00006643,0.00012885,0.000
 00987,0.00007020,0.00003374,-0.00001942,0.00001704,0.00001157,0.000010
 63,0.00005550,0.00012431,-0.01004999,-0.00573614,0.00947106,-0.0001762
 4,0.00010197,0.00000361,0.00004083,-0.00001100,0.00001145,0.00000342,-
 0.00003207,-0.00000657,-0.00001311,-0.00002823,-0.00004940,0.00015679,
 0.00010364,-0.00007717,-0.00002403,-0.00000258,0.00007299,-0.00002188,
 0.00001123,0.00001207,-0.00000593,0.00000084,-0.00000739,-0.00000314,0
 .00000035,-0.00000579,-0.00000362,-0.00000723,0.00000035,-0.00000028,-
 0.00002023,0.00001059,-0.00084232,-0.00204822,0.00009805,-0.00004151,0
 .00011218,-0.00007277,-0.00022039,-0.00038701,0.00036382,-0.00031311,-
 0.00035932,0.00048322,0.11985124,0.05770678,-0.18929440,0.01525261,0.0
 0703458,-0.01833569,-0.12778834,-0.05318183,0.20052595,-0.00330582,-0.
 00274298,-0.00058620,0.00062883,-0.00056548,-0.00004311,0.00036300,0.0
 0024921,-0.00033775,0.00098369,-0.00085593,-0.00027178,-0.00001195,0.0
 0016183,0.00013525,-0.00011507,-0.00022041,-0.00035853,-0.00014786,-0.
 00033904,0.00016696,0.00001661,0.00007545,-0.00013514,0.00000767,0.000
 02390,-0.00001315,0.00000977,0.00019494,-0.00002651,0.01421986,-0.0172
 2526,-0.00777935,0.00009632,-0.00004510,-0.00002243,-0.00003856,0.0000
 5720,0.00002305,-0.00000514,0.00009180,-0.00014724,0.00002985,-0.00019
 717,0.00007646,-0.00006091,0.00000301,0.00000527,0.00000839,0.00000461
 ,-0.00001186,-0.00001702,0.00000626,0.00000519,0.00000064,-0.00002317,
 -0.00001928,-0.00001486,0.00001253,-0.00002485,-0.00000375,0.00002187,
 0.00001633,0.00003453,0.00000837,0.00000384,0.00142798,-0.00078491,-0.
 00131910,-0.00004731,-0.00070901,-0.00023179,-0.00012154,-0.00020099,0
 .00048767,0.00001274,-0.00027914,0.00008097,-0.12451953,0.05554011,0.0
 2113775,-0.01030216,0.01485396,0.00633803,-0.01171045,0.01806858,0.005
 24472,0.55742221,-0.00287342,-0.00211531,0.00078139,0.00041212,-0.0004
 7734,-0.00027342,0.00029257,0.00041807,-0.00013267,0.00076535,-0.00021
 639,0.00010855,-0.00000671,0.00008450,0.00000439,-0.00009151,-0.000078
 27,-0.00019781,-0.00008491,-0.00018640,0.00002991,0.00001696,0.0000427
 6,-0.00006927,0.00002048,-0.00000576,-0.00001142,0.00009298,0.00009342
 ,-0.00000196,0.01034574,-0.02748739,-0.01313707,-0.00012639,-0.0000096
 3,0.00008284,0.00003745,-0.00001954,-0.00004142,-0.00001450,-0.0000193
 7,0.00004223,0.00006381,0.00012887,0.00000264,-0.00001292,-0.00001213,
 0.00001436,0.00000180,0.00000466,0.00000435,0.00000972,-0.00000669,-0.
 00001324,-0.00001911,-0.00001161,-0.00003536,0.00000713,-0.00000368,0.
 00001146,0.00000874,0.00000746,0.00000516,0.00000988,0.00001762,0.0000
 0340,-0.00054601,-0.00108022,-0.00035091,-0.00011708,-0.00141569,-0.00
 026724,0.00003961,-0.00006790,0.00026345,0.00051707,0.00030155,-0.0002
 8474,0.05136469,-0.14753197,-0.02278802,0.00881097,-0.00940610,-0.0036
 4318,-0.00353060,0.00600705,0.00117976,0.04100968,0.51196234,-0.001067
 58,-0.00157997,0.00009187,0.00003713,-0.00088776,-0.00002568,-0.000504
 84,0.00003952,0.00013456,0.00024256,-0.00052434,0.00018420,0.00000331,
 -0.00002023,0.00000649,-0.00012231,-0.00010540,-0.00020003,0.00001560,
 -0.00006848,0.00017388,-0.00000731,0.00002352,-0.00003808,-0.00000627,
 0.00003124,-0.00000952,-0.00008323,0.00008339,-0.00006428,0.00662851,-
 0.01309182,-0.00554539,0.00016426,-0.00003677,-0.00006620,-0.00005537,
 0.00004430,0.00005593,0.00001314,0.00006517,-0.00012318,-0.00002084,-0
 .00019186,0.00003703,-0.00003838,0.00002113,0.00000981,0.00000231,-0.0
 0000063,-0.00001768,-0.00002221,0.00001297,0.00001634,0.00002481,-0.00
 000464,0.00001385,-0.00001930,0.00001199,-0.00002664,-0.00000874,0.000
 01092,0.00000352,0.00001268,-0.00001359,0.00000047,-0.00136670,-0.0003
 3206,0.00072744,0.00069939,-0.00058578,0.00046170,-0.00028738,-0.00022
 341,0.00003987,0.00037562,-0.00015313,-0.00025533,0.01877376,-0.020683
 54,-0.08974854,-0.01470668,0.02125919,0.00738233,0.01404483,-0.0214326
 9,-0.00661816,0.01369025,-0.01714016,0.57674410,0.00076033,0.00061321,
 0.00034613,-0.00003875,0.00006193,-0.00001734,-0.00002094,-0.00007190,
 0.00001431,-0.00024864,0.00019312,0.00005837,0.00002167,-0.00001452,-0
 .00001541,0.00003435,0.00004176,0.00007446,0.00003641,0.00006691,-0.00
 001239,-0.00000531,-0.00001491,0.00002128,0.00000496,-0.00000474,-0.00
 000242,0.00001386,-0.00002679,-0.00002934,-0.00208319,0.00307904,0.001
 37208,-0.00003015,-0.00000348,0.00004609,0.00001137,-0.00000983,-0.000
 01806,-0.00000383,-0.00001464,0.00002820,-0.00000285,0.00004592,-0.000
 00683,0.00000162,-0.00001935,0.00002454,-0.00000206,0.00000224,-0.0000
 0576,0.00000739,0.00000165,-0.00000550,0.00000057,0.00000476,-0.000002
 81,-0.00000242,-0.00000412,0.00000208,0.00000323,-0.00000063,-0.000003
 92,-0.00000041,-0.00000490,0.00000339,-0.00077616,0.00008892,0.0002591
 7,0.00040860,-0.00016726,-0.00018537,0.00009193,0.00000521,-0.00006994
 ,0.00019773,-0.00009801,-0.00011368,0.01260475,0.01480310,0.00535404,0
 .00042606,-0.00081951,-0.00045346,0.00108472,-0.00043904,-0.00017601,-
 0.14981756,-0.12276362,-0.04137484,0.16046343,-0.00138519,-0.00055836,
 0.00012982,0.00019790,-0.00030445,-0.00001610,0.00003754,0.00007684,-0
 .00003880,0.00034066,-0.00027478,-0.00001400,-0.00000134,0.00004383,0.
 00003160,-0.00004842,-0.00009809,-0.00015474,-0.00005806,-0.00011033,0
 .00009700,0.00000135,0.00002301,-0.00007468,0.00001562,0.00000613,-0.0
 0000699,0.00000430,0.00006043,-0.00009065,0.00455574,-0.00377682,-0.00
 162743,0.00001682,-0.00001453,0.00002017,-0.00001017,0.00000046,-0.000
 02197,-0.00000379,0.00002141,-0.00001975,0.00005440,-0.00002205,0.0000
 2791,-0.00005575,-0.00001937,0.00006606,0.00000315,0.00000507,-0.00002
 774,0.00000187,-0.00000125,-0.00000410,-0.00000093,-0.00000542,-0.0000
 2704,-0.00000189,0.00000247,0.00000220,0.00000513,0.00001028,-0.000005
 23,0.00000341,-0.00000115,0.00000794,0.00050501,0.00045785,-0.00071798
 ,0.00012256,0.00005540,0.00007864,-0.00004694,-0.00008769,0.00016986,0
 .00000190,-0.00012458,-0.00001278,-0.01926574,-0.01740649,-0.00613855,
 0.00019959,0.00048052,0.00088375,-0.00013937,0.00125787,-0.00025953,-0
 .12079616,-0.19642493,-0.04811285,0.13256864,0.21228964,-0.00035890,-0
 .00049067,0.00056246,0.00022331,-0.00025812,-0.00008899,0.00000666,0.0
 0002604,-0.00000479,0.00006599,-0.00005016,0.00005630,-0.00002745,0.00
 002558,-0.00000031,-0.00001408,-0.00002574,-0.00004746,-0.00002160,-0.
 00002562,0.00003904,0.00000173,0.00001116,-0.00002288,0.00000857,-0.00
 000340,0.00000075,0.00002790,0.00003265,-0.00005641,0.00173917,-0.0026
 3790,-0.00077367,-0.00003846,-0.00001925,0.00004715,0.00001334,-0.0000
 0307,-0.00003084,-0.00001248,-0.00000053,0.00001506,0.00004279,0.00003
 262,0.00000869,-0.00002770,-0.00003807,0.00004131,0.00000640,0.0000132
 9,-0.00001229,0.00000592,0.00000087,-0.00000826,-0.00001413,-0.0000043
 4,-0.00003373,-0.00000359,-0.00000281,-0.00000018,0.00000486,0.0000084
 1,0.00000383,0.00001642,-0.00000284,0.00000885,0.00092302,0.00025271,-
 0.00030915,-0.00038436,0.00032930,0.00000080,-0.00006409,-0.00007766,0
 .00012603,-0.00018778,0.00005438,0.00011324,-0.00658216,-0.00564048,-0
 .00390060,0.00021320,0.00013460,0.00017884,-0.00040137,0.00011304,0.00
 005321,-0.04024027,-0.04797425,-0.06439139,0.04311972,0.05520641,0.065
 79142,-0.00000560,-0.00001662,0.00011289,-0.00001481,0.00007789,-0.000
 03197,0.00018521,0.00003608,-0.00010985,0.00000813,0.00006217,-0.00007
 032,0.00004204,0.00001491,0.00001966,0.00001192,0.00003446,0.00003481,
 0.00000861,-0.00002120,-0.00003719,0.00000964,0.00000558,0.00002510,0.
 00000210,-0.00000606,-0.00000872,0.00004882,0.00001557,0.00006361,0.00
 025653,-0.00017301,-0.00035953,-0.00005770,0.00002635,-0.00000458,0.00
 001982,-0.00000617,0.00000687,-0.00000162,-0.00001501,0.00002193,-0.00
 000287,0.00002248,-0.00001368,0.00001303,-0.00000001,-0.00003695,0.000
 00622,0.00000540,0.00001946,0.00000267,-0.00000615,-0.00000387,-0.0000
 1667,-0.00000563,-0.00001542,0.00000775,-0.00000288,0.00000682,0.00000
 085,-0.00000174,0.00000717,0.00000509,0.00001162,0.00000106,-0.0005534
 7,-0.00071804,0.00015049,0.00046184,-0.00120910,-0.00034327,-0.0000882
 3,0.00020249,-0.00013616,0.00025938,-0.00006583,-0.00025491,-0.0118163
 5,-0.00512069,0.01432029,0.00046461,-0.00052071,-0.00046944,-0.0010240
 4,0.00385759,0.00082544,-0.13623183,-0.02938817,0.11900397,-0.01171747
 ,-0.00379647,0.01645620,0.14647871,0.00008928,-0.00019102,-0.00009651,
 -0.00006597,-0.00004090,0.00004128,-0.00022432,0.00002642,0.00017390,-
 0.00009457,-0.00005739,0.00003614,-0.00001933,-0.00003117,-0.00003741,
 -0.00001410,-0.00000668,-0.00001076,0.00001074,0.00002542,0.00002273,-
 0.00000301,-0.00000396,0.00000137,-0.00000504,0.00000438,0.00000601,-0
 .00003236,-0.00000283,-0.00002879,-0.00025229,0.00129716,0.00051273,0.
 00004058,-0.00002588,-0.00000994,-0.00001191,0.00001108,0.00000661,-0.
 00000395,0.00001014,-0.00001712,-0.00001128,-0.00001761,0.00000192,-0.
 00000651,-0.00000845,0.00001007,0.00000092,0.00000376,-0.00000652,-0.0
 0000446,0.00000589,0.00000391,0.00000280,0.00000219,0.00000191,-0.0000
 0779,0.00000139,-0.00000999,-0.00000283,0.00000278,0.00000211,0.000008
 13,-0.00001070,0.00000246,-0.00037778,-0.00109156,-0.00043689,-0.00076
 459,-0.00182977,-0.00050488,0.00000812,-0.00011347,0.00016096,-0.00001
 069,0.00009180,0.00010870,0.01660164,0.00811292,-0.02293659,-0.0011072
 4,0.00133890,0.00042766,0.00304565,-0.00412984,-0.00181785,-0.03006424
 ,-0.05993321,0.04331814,-0.01326833,-0.00494225,0.02079648,0.03266814,
 0.06436607,-0.00004139,-0.00020348,-0.00006139,0.00000374,-0.00007979,
 0.00002178,-0.00018610,-0.00002766,0.00009866,0.00004436,-0.00006021,0
 .00003546,-0.00004418,-0.00000632,-0.00002232,-0.00000788,-0.00002391,
 -0.00001931,-0.00001203,0.00008313,-0.00001330,-0.00001156,-0.00002432
 ,-0.00001572,-0.00000208,-0.00000833,0.00001324,-0.00005151,-0.0000856
 4,-0.00004656,0.00032427,0.00009002,0.00014163,0.00003356,0.00004534,0
 .00001134,-0.00000774,-0.00003890,-0.00003677,0.00001170,-0.00003304,0
 .00005221,0.00003665,0.00004022,0.00000585,-0.00000303,0.00001234,0.00
 004713,-0.00001052,-0.00001280,-0.00002100,0.00000474,-0.00000270,-0.0
 0000012,0.00001971,0.00001258,0.00001725,0.00000450,-0.00000125,0.0000
 1343,0.00000315,-0.00000825,-0.00001826,-0.00003078,-0.00000760,-0.000
 00507,0.00137610,-0.00013218,-0.00024011,-0.00093548,0.00010760,0.0003
 9069,-0.00008232,0.00000307,0.00004139,-0.00042949,0.00026767,0.000257
 09,0.00405816,0.00210961,-0.00650086,-0.00038121,-0.00058835,0.0008996
 4,0.00069061,-0.00151632,0.00111521,0.11960582,0.04235024,-0.21704458,
 -0.00538873,-0.00105382,0.00791363,-0.13356597,-0.04640554,0.23147238,
 0.00020789,-0.00027572,0.00021185,0.00002019,-0.00018596,-0.00007153,-
 0.00003390,0.00001265,-0.00005577,-0.00001093,0.00002174,-0.00000944,0
 .00000275,0.00001765,0.00000292,0.00000040,0.00001886,0.00003510,0.000
 01109,0.00012643,-0.00005835,-0.00000926,-0.00003775,0.00001957,0.0000
 0604,-0.00001888,0.00000061,-0.00002613,-0.00012698,-0.00001749,0.0017
 0457,-0.00128753,0.00045138,-0.00000233,0.00008658,0.00001663,0.000014
 96,-0.00005717,-0.00003375,0.00002651,-0.00006475,0.00009012,0.0000299
 0,0.00006277,-0.00002626,0.00000027,0.00002051,0.00002932,-0.00000735,
 -0.00001546,-0.00001267,0.00001430,-0.00001338,-0.00000584,0.00001972,
 0.00001369,0.00001700,0.00001817,-0.00000553,0.00002894,0.00000407,-0.
 00001514,-0.00002461,-0.00004913,0.00000290,-0.00000626,0.00001801,0.0
 0010600,0.00023926,0.00000834,0.00006252,0.00001697,-0.00010625,-0.000
 04034,-0.00000733,0.00004339,0.00005472,-0.00004311,-0.01222486,0.0053
 6027,-0.01535103,-0.00133631,0.00348778,0.00156718,0.00019026,-0.00065
 145,-0.00016385,-0.13879077,0.04574820,-0.11404015,-0.01142323,0.00697
 465,-0.01449677,0.01323765,-0.00612342,0.01497493,0.14844197,0.0002052
 5,-0.00005407,-0.00036668,-0.00020098,0.00031704,-0.00002892,-0.000046
 25,0.00001549,0.00008434,-0.00002388,0.00006513,-0.00003938,-0.0000304
 0,-0.00004505,-0.00002169,-0.00000915,0.00002396,0.00001801,-0.0000082
 7,-0.00007018,-0.00001209,0.00000751,0.00001371,-0.00000141,-0.0000170
 6,0.00001459,0.00000808,-0.00003579,0.00003246,0.00007639,-0.00073824,
 0.00264865,0.00094561,0.00008326,-0.00000786,-0.00013939,-0.00003707,0
 .00003145,0.00005126,0.00000212,0.00004131,-0.00006450,-0.00008924,-0.
 00016125,-0.00006286,0.00002220,0.00003900,-0.00006009,-0.00000030,-0.
 00000445,0.00001849,-0.00001837,0.00000275,0.00001562,-0.00000223,-0.0
 0000334,0.00001732,-0.00000127,0.00000830,-0.00000903,-0.00000666,-0.0
 0000217,0.00000798,0.00000486,0.00000191,-0.00000526,-0.00020040,-0.00
 028147,0.00037655,0.00001503,-0.00009403,0.00017906,0.00002392,0.00018
 779,-0.00020495,-0.00006810,-0.00000017,-0.00002099,0.01692173,-0.0095
 4090,0.02192358,0.00337016,-0.00416243,-0.00214007,-0.00073154,0.00093
 205,-0.00031096,0.04466568,-0.07255876,0.06026766,-0.01383083,0.009381
 32,-0.01978263,0.00403278,-0.00286362,0.00519859,-0.05325846,0.0760928
 6,0.00031816,-0.00007609,0.00007202,-0.00003993,0.00003435,-0.00011753
 ,0.00002843,-0.00000039,0.00000280,-0.00008609,0.00008141,-0.00001735,
 -0.00000039,-0.00000345,-0.00001718,0.00001089,0.00002528,0.00003153,-
 0.00000062,-0.00000119,-0.00002297,0.00000446,0.00000327,0.00001505,0.
 00000070,-0.00000192,-0.00000085,0.00004149,0.00001392,0.00002134,0.00
 041071,0.00066622,0.00083463,-0.00004396,-0.00007254,0.00001334,0.0000
 0775,0.00001749,-0.00000489,-0.00001271,0.00001913,-0.00000462,-0.0000
 4999,-0.00000323,-0.00007701,0.00001523,-0.00000530,-0.00002524,0.0000
 0224,0.00000340,0.00001251,0.00000284,-0.00000178,-0.00000203,-0.00001
 279,-0.00000366,-0.00000347,0.00000400,-0.00000111,-0.00000184,-0.0000
 0104,0.00000063,0.00000554,0.00000739,0.00000568,0.00000013,-0.0002083
 8,0.00017077,0.00013515,-0.00001209,0.00003201,-0.00022067,0.00008765,
 -0.00003477,-0.00006724,0.00001788,0.00005330,0.00003066,0.00616023,-0
 .00323831,0.00815375,0.00086333,-0.00211880,0.00070672,-0.00033263,0.0
 0048825,0.00083118,-0.11544923,0.06147802,-0.20190874,-0.00284202,0.00
 170338,-0.00527966,-0.01561396,0.00668371,-0.01850265,0.12672244,-0.06
 591766,0.21540759\\0.00000109,0.00000420,-0.00000442,0.00000349,-0.000
 00064,-0.00000155,0.00000169,-0.00000102,-0.00000223,0.00000248,-0.000
 00338,-0.00000027,0.00000036,0.00000167,0.00000247,0.00000117,-0.00000
 129,-0.00000068,-0.00000183,0.00000064,0.00000197,-0.00000151,-0.00000
 050,-0.00000035,0.00000016,0.00000057,-0.00000206,-0.00000404,-0.00000
 103,-0.00000267,0.00000596,-0.00000025,0.00001095,0.00000369,-0.000000
 88,0.00000326,-0.00000566,-0.00000109,0.00000136,-0.00000422,-0.000000
 09,0.00000180,-0.00000281,-0.00000087,0.00000240,-0.00000626,0.0000020
 4,0.00000392,-0.00000477,-0.00000003,-0.00000308,-0.00000317,0.0000005
 4,-0.00000219,-0.00000469,-0.00000258,-0.00000234,-0.00000592,0.000001
 45,0.00000028,-0.00000523,0.00000202,-0.00000288,-0.00000235,0.0000027
 5,-0.00000144,0.00000880,0.00000489,-0.00000890,0.00000204,-0.00000081
 ,0.00000503,0.00000607,-0.00000217,0.00000447,0.00000328,-0.00000274,0
 .00000080,-0.00000435,-0.00000476,-0.00000721,0.00000505,-0.00000052,0
 .00000219,0.00000299,0.00000149,-0.00000066,0.00000322,0.00000112,-0.0
 0000088,0.00000281,0.00000111,-0.00000157,0.00000308,-0.00000085,0.000
 00211,-0.00000062,0.00000099,0.00000239\\\@
 The archive entry for this job was punched.


 ALTHOUGH J.J. COULD DIAGNOSE THE FAULTS OF AN
 APPARATUS WITH UNCANNY ACCURACY, IT WAS JUST AS
 WELL NOT TO LET HIM HANDLE IT.
   -- GEORGE THOMPSON, ABOUT HIS FATHER
 Job cpu time:       0 days  1 hours  2 minutes 34.0 seconds.
 Elapsed time:       0 days  0 hours  7 minutes 49.6 seconds.
 File lengths (MBytes):  RWF=    260 Int=      0 D2E=      0 Chk=     14 Scr=      1
 Normal termination of Gaussian 16 at Sun Oct 24 07:20:53 2021.
