 Entering Gaussian System, Link 0=/home/rong/g16/g16
 Input=/home/rong/g16/092821/CH3CH2CH2NCHCH3.gjf
 Output=/home/rong/g16/092821/CH3CH2CH2NCHCH3.log
 Initial command:
 /home/rong/g16/l1.exe "/tmp/Gau-155211.inp" -scrdir="/tmp/"
 Default is to use a total of   8 processors:
                                8 via shared-memory
                                1 via Linda
 Entering Link 1 = /home/rong/g16/l1.exe PID=    155213.
  
 Copyright (c) 1988-2019, Gaussian, Inc.  All Rights Reserved.
  
 This is part of the Gaussian(R) 16 program.  It is based on
 the Gaussian(R) 09 system (copyright 2009, Gaussian, Inc.),
 the Gaussian(R) 03 system (copyright 2003, Gaussian, Inc.),
 the Gaussian(R) 98 system (copyright 1998, Gaussian, Inc.),
 the Gaussian(R) 94 system (copyright 1995, Gaussian, Inc.),
 the Gaussian 92(TM) system (copyright 1992, Gaussian, Inc.),
 the Gaussian 90(TM) system (copyright 1990, Gaussian, Inc.),
 the Gaussian 88(TM) system (copyright 1988, Gaussian, Inc.),
 the Gaussian 86(TM) system (copyright 1986, Carnegie Mellon
 University), and the Gaussian 82(TM) system (copyright 1983,
 Carnegie Mellon University). Gaussian is a federally registered
 trademark of Gaussian, Inc.
  
 This software contains proprietary and confidential information,
 including trade secrets, belonging to Gaussian, Inc.
  
 This software is provided under written license and may be
 used, copied, transmitted, or stored only in accord with that
 written license.
  
 The following legend is applicable only to US Government
 contracts under FAR:
  
                    RESTRICTED RIGHTS LEGEND
  
 Use, reproduction and disclosure by the US Government is
 subject to restrictions as set forth in subparagraphs (a)
 and (c) of the Commercial Computer Software - Restricted
 Rights clause in FAR 52.227-19.
  
 Gaussian, Inc.
 340 Quinnipiac St., Bldg. 40, Wallingford CT 06492
  
  
 ---------------------------------------------------------------
 Warning -- This program may not be used in any manner that
 competes with the business of Gaussian, Inc. or will provide
 assistance to any competitor of Gaussian, Inc.  The licensee
 of this program is prohibited from giving any competitor of
 Gaussian, Inc. access to this program.  By using this program,
 the user acknowledges that Gaussian, Inc. is engaged in the
 business of creating and licensing software in the field of
 computational chemistry and represents and warrants to the
 licensee that it is not a competitor of Gaussian, Inc. and that
 it will not use this program in any manner prohibited above.
 ---------------------------------------------------------------
  

 Cite this work as:
 Gaussian 16, Revision C.01,
 M. J. Frisch, G. W. Trucks, H. B. Schlegel, G. E. Scuseria, 
 M. A. Robb, J. R. Cheeseman, G. Scalmani, V. Barone, 
 G. A. Petersson, H. Nakatsuji, X. Li, M. Caricato, A. V. Marenich, 
 J. Bloino, B. G. Janesko, R. Gomperts, B. Mennucci, H. P. Hratchian, 
 J. V. Ortiz, A. F. Izmaylov, J. L. Sonnenberg, D. Williams-Young, 
 F. Ding, F. Lipparini, F. Egidi, J. Goings, B. Peng, A. Petrone, 
 T. Henderson, D. Ranasinghe, V. G. Zakrzewski, J. Gao, N. Rega, 
 G. Zheng, W. Liang, M. Hada, M. Ehara, K. Toyota, R. Fukuda, 
 J. Hasegawa, M. Ishida, T. Nakajima, Y. Honda, O. Kitao, H. Nakai, 
 T. Vreven, K. Throssell, J. A. Montgomery, Jr., J. E. Peralta, 
 F. Ogliaro, M. J. Bearpark, J. J. Heyd, E. N. Brothers, K. N. Kudin, 
 V. N. Staroverov, T. A. Keith, R. Kobayashi, J. Normand, 
 K. Raghavachari, A. P. Rendell, J. C. Burant, S. S. Iyengar, 
 J. Tomasi, M. Cossi, J. M. Millam, M. Klene, C. Adamo, R. Cammi, 
 J. W. Ochterski, R. L. Martin, K. Morokuma, O. Farkas, 
 J. B. Foresman, and D. J. Fox, Gaussian, Inc., Wallingford CT, 2019.
 
 ******************************************
 Gaussian 16:  ES64L-G16RevC.01  3-Jul-2019
                29-Sep-2021 
 ******************************************
 %mem=15GB
 %chk=CH3CH2CH2NCHCH3.chk
 %nprocshared=8
 Will use up to    8 processors via shared memory.
 ----------------------------------------------------
 # opt freq b3lyp/6-31g(d) scrf=(smd,solvent=toluene)
 ----------------------------------------------------
 1/18=20,19=15,26=3,38=1/1,3;
 2/9=110,12=2,17=6,18=5,40=1/2;
 3/5=1,6=6,7=1,11=2,25=1,30=1,70=32201,71=1,72=13,74=-5/1,2,3;
 4//1;
 5/5=2,38=5,53=13/2;
 6/7=2,8=2,9=2,10=2,28=1/1;
 7//1,2,3,16;
 1/18=20,19=15,26=3/3(2);
 2/9=110/2;
 99//99;
 2/9=110/2;
 3/5=1,6=6,7=1,11=2,25=1,30=1,70=32205,71=1,72=13,74=-5/1,2,3;
 4/5=5,16=3,69=1/1;
 5/5=2,38=5,53=13/2;
 7//1,2,3,16;
 1/18=20,19=15,26=3/3(-5);
 2/9=110/2;
 6/7=2,8=2,9=2,10=2,19=2,28=1/1;
 99/9=1/99;
 ---------------
 CH3CH2CH2NCHCH3
 ---------------
 Symbolic Z-matrix:
 Charge =  0 Multiplicity = 1
 C                    -2.77941   1.51471   0. 
 H                    -2.42274   2.0191    0.87365 
 H                    -2.42274   2.0191   -0.87365 
 H                    -3.84941   1.51472   0. 
 C                    -2.2661    0.06277   0. 
 C                    -0.7261    0.06276  0. 
 H                    -0.36944  -0.94605   0.00196 
 H                    -0.36943   0.56546  -0.87463 
 H                    -0.36942   0.56885   0.87267 
 C                    -2.77944  -0.66318   1.25741 
 H                    -3.84944  -0.66298   1.25752 
 H                    -2.42259  -0.15891   2.13106 
 C                    -2.77944  -0.66318  -1.2574 
 H                    -3.84944  -0.66332  -1.25732 
 H                    -2.42291  -0.15869  -2.13106 
 N                    -2.28969  -2.0492    1.25726 
 N                    -2.28927  -2.04905  -1.25752 
 C                    -2.60225  -2.84574   2.22743 
 H                    -3.62861  -3.00345   2.48552 
 C                    -2.05446  -2.65198  -2.37767 
 H                    -2.8693   -3.01162  -2.97062 
 C                    -1.49335  -3.56948   3.01365 
 H                    -0.90796  -2.85081   3.54819 
 H                    -1.93612  -4.25477   3.70592 
 H                    -0.86551  -4.10573   2.33309 
 C                    -0.60619  -2.8539   -2.86071 
 H                    -0.59121  -3.57424  -3.65178 
 H                    -0.21639  -1.92367  -3.21797 
 H                    -0.0047   -3.20409  -2.04802 
 

 GradGradGradGradGradGradGradGradGradGradGradGradGradGradGradGradGradGrad
 Berny optimization.
 Initialization pass.
                           ----------------------------
                           !    Initial Parameters    !
                           ! (Angstroms and Degrees)  !
 --------------------------                            --------------------------
 ! Name  Definition              Value          Derivative Info.                !
 --------------------------------------------------------------------------------
 ! R1    R(1,2)                  1.07           estimate D2E/DX2                !
 ! R2    R(1,3)                  1.07           estimate D2E/DX2                !
 ! R3    R(1,4)                  1.07           estimate D2E/DX2                !
 ! R4    R(1,5)                  1.54           estimate D2E/DX2                !
 ! R5    R(5,6)                  1.54           estimate D2E/DX2                !
 ! R6    R(5,10)                 1.54           estimate D2E/DX2                !
 ! R7    R(5,13)                 1.54           estimate D2E/DX2                !
 ! R8    R(6,7)                  1.07           estimate D2E/DX2                !
 ! R9    R(6,8)                  1.07           estimate D2E/DX2                !
 ! R10   R(6,9)                  1.07           estimate D2E/DX2                !
 ! R11   R(10,11)                1.07           estimate D2E/DX2                !
 ! R12   R(10,12)                1.07           estimate D2E/DX2                !
 ! R13   R(10,16)                1.47           estimate D2E/DX2                !
 ! R14   R(13,14)                1.07           estimate D2E/DX2                !
 ! R15   R(13,15)                1.07           estimate D2E/DX2                !
 ! R16   R(13,17)                1.47           estimate D2E/DX2                !
 ! R17   R(16,18)                1.2936         estimate D2E/DX2                !
 ! R18   R(17,20)                1.2936         estimate D2E/DX2                !
 ! R19   R(18,19)                1.07           estimate D2E/DX2                !
 ! R20   R(18,22)                1.54           estimate D2E/DX2                !
 ! R21   R(20,21)                1.07           estimate D2E/DX2                !
 ! R22   R(20,26)                1.54           estimate D2E/DX2                !
 ! R23   R(22,23)                1.07           estimate D2E/DX2                !
 ! R24   R(22,24)                1.07           estimate D2E/DX2                !
 ! R25   R(22,25)                1.07           estimate D2E/DX2                !
 ! R26   R(26,27)                1.07           estimate D2E/DX2                !
 ! R27   R(26,28)                1.07           estimate D2E/DX2                !
 ! R28   R(26,29)                1.07           estimate D2E/DX2                !
 ! A1    A(2,1,3)              109.4713         estimate D2E/DX2                !
 ! A2    A(2,1,4)              109.4712         estimate D2E/DX2                !
 ! A3    A(2,1,5)              109.4712         estimate D2E/DX2                !
 ! A4    A(3,1,4)              109.4712         estimate D2E/DX2                !
 ! A5    A(3,1,5)              109.4712         estimate D2E/DX2                !
 ! A6    A(4,1,5)              109.4712         estimate D2E/DX2                !
 ! A7    A(1,5,6)              109.4712         estimate D2E/DX2                !
 ! A8    A(1,5,10)             109.4712         estimate D2E/DX2                !
 ! A9    A(1,5,13)             109.4712         estimate D2E/DX2                !
 ! A10   A(6,5,10)             109.4713         estimate D2E/DX2                !
 ! A11   A(6,5,13)             109.4712         estimate D2E/DX2                !
 ! A12   A(10,5,13)            109.4712         estimate D2E/DX2                !
 ! A13   A(5,6,7)              109.4712         estimate D2E/DX2                !
 ! A14   A(5,6,8)              109.4712         estimate D2E/DX2                !
 ! A15   A(5,6,9)              109.4712         estimate D2E/DX2                !
 ! A16   A(7,6,8)              109.4713         estimate D2E/DX2                !
 ! A17   A(7,6,9)              109.4712         estimate D2E/DX2                !
 ! A18   A(8,6,9)              109.4712         estimate D2E/DX2                !
 ! A19   A(5,10,11)            109.4712         estimate D2E/DX2                !
 ! A20   A(5,10,12)            109.4712         estimate D2E/DX2                !
 ! A21   A(5,10,16)            109.4712         estimate D2E/DX2                !
 ! A22   A(11,10,12)           109.4712         estimate D2E/DX2                !
 ! A23   A(11,10,16)           109.4713         estimate D2E/DX2                !
 ! A24   A(12,10,16)           109.4712         estimate D2E/DX2                !
 ! A25   A(5,13,14)            109.4712         estimate D2E/DX2                !
 ! A26   A(5,13,15)            109.4712         estimate D2E/DX2                !
 ! A27   A(5,13,17)            109.4712         estimate D2E/DX2                !
 ! A28   A(14,13,15)           109.4712         estimate D2E/DX2                !
 ! A29   A(14,13,17)           109.4713         estimate D2E/DX2                !
 ! A30   A(15,13,17)           109.4712         estimate D2E/DX2                !
 ! A31   A(10,16,18)           120.0            estimate D2E/DX2                !
 ! A32   A(13,17,20)           120.0            estimate D2E/DX2                !
 ! A33   A(16,18,19)           120.2269         estimate D2E/DX2                !
 ! A34   A(16,18,22)           119.8865         estimate D2E/DX2                !
 ! A35   A(19,18,22)           119.8865         estimate D2E/DX2                !
 ! A36   A(17,20,21)           119.8865         estimate D2E/DX2                !
 ! A37   A(17,20,26)           120.2269         estimate D2E/DX2                !
 ! A38   A(21,20,26)           119.8865         estimate D2E/DX2                !
 ! A39   A(18,22,23)           109.4712         estimate D2E/DX2                !
 ! A40   A(18,22,24)           109.4712         estimate D2E/DX2                !
 ! A41   A(18,22,25)           109.4712         estimate D2E/DX2                !
 ! A42   A(23,22,24)           109.4713         estimate D2E/DX2                !
 ! A43   A(23,22,25)           109.4712         estimate D2E/DX2                !
 ! A44   A(24,22,25)           109.4712         estimate D2E/DX2                !
 ! A45   A(20,26,27)           109.4712         estimate D2E/DX2                !
 ! A46   A(20,26,28)           109.4712         estimate D2E/DX2                !
 ! A47   A(20,26,29)           109.4712         estimate D2E/DX2                !
 ! A48   A(27,26,28)           109.4713         estimate D2E/DX2                !
 ! A49   A(27,26,29)           109.4712         estimate D2E/DX2                !
 ! A50   A(28,26,29)           109.4712         estimate D2E/DX2                !
 ! D1    D(2,1,5,6)            -60.0002         estimate D2E/DX2                !
 ! D2    D(2,1,5,10)            59.9999         estimate D2E/DX2                !
 ! D3    D(2,1,5,13)           179.9999         estimate D2E/DX2                !
 ! D4    D(3,1,5,6)             59.9999         estimate D2E/DX2                !
 ! D5    D(3,1,5,10)           179.9999         estimate D2E/DX2                !
 ! D6    D(3,1,5,13)           -60.0001         estimate D2E/DX2                !
 ! D7    D(4,1,5,6)            179.9999         estimate D2E/DX2                !
 ! D8    D(4,1,5,10)           -60.0001         estimate D2E/DX2                !
 ! D9    D(4,1,5,13)            59.9999         estimate D2E/DX2                !
 ! D10   D(1,5,6,7)            179.8887         estimate D2E/DX2                !
 ! D11   D(1,5,6,8)            -60.1112         estimate D2E/DX2                !
 ! D12   D(1,5,6,9)             59.8888         estimate D2E/DX2                !
 ! D13   D(10,5,6,7)            59.8888         estimate D2E/DX2                !
 ! D14   D(10,5,6,8)           179.8888         estimate D2E/DX2                !
 ! D15   D(10,5,6,9)           -60.1112         estimate D2E/DX2                !
 ! D16   D(13,5,6,7)           -60.1113         estimate D2E/DX2                !
 ! D17   D(13,5,6,8)            59.8888         estimate D2E/DX2                !
 ! D18   D(13,5,6,9)           179.8888         estimate D2E/DX2                !
 ! D19   D(1,5,10,11)           59.9878         estimate D2E/DX2                !
 ! D20   D(1,5,10,12)          -60.0122         estimate D2E/DX2                !
 ! D21   D(1,5,10,16)          179.9878         estimate D2E/DX2                !
 ! D22   D(6,5,10,11)          179.9877         estimate D2E/DX2                !
 ! D23   D(6,5,10,12)           59.9878         estimate D2E/DX2                !
 ! D24   D(6,5,10,16)          -60.0122         estimate D2E/DX2                !
 ! D25   D(13,5,10,11)         -60.0122         estimate D2E/DX2                !
 ! D26   D(13,5,10,12)         179.9878         estimate D2E/DX2                !
 ! D27   D(13,5,10,16)          59.9878         estimate D2E/DX2                !
 ! D28   D(1,5,13,14)          -60.0094         estimate D2E/DX2                !
 ! D29   D(1,5,13,15)           59.9906         estimate D2E/DX2                !
 ! D30   D(1,5,13,17)          179.9906         estimate D2E/DX2                !
 ! D31   D(6,5,13,14)          179.9906         estimate D2E/DX2                !
 ! D32   D(6,5,13,15)          -60.0094         estimate D2E/DX2                !
 ! D33   D(6,5,13,17)           59.9906         estimate D2E/DX2                !
 ! D34   D(10,5,13,14)          59.9905         estimate D2E/DX2                !
 ! D35   D(10,5,13,15)         179.9905         estimate D2E/DX2                !
 ! D36   D(10,5,13,17)         -60.0095         estimate D2E/DX2                !
 ! D37   D(5,10,16,18)        -179.9999         estimate D2E/DX2                !
 ! D38   D(11,10,16,18)        -59.9999         estimate D2E/DX2                !
 ! D39   D(12,10,16,18)         60.0001         estimate D2E/DX2                !
 ! D40   D(5,13,17,20)        -148.957          estimate D2E/DX2                !
 ! D41   D(14,13,17,20)         91.043          estimate D2E/DX2                !
 ! D42   D(15,13,17,20)        -28.957          estimate D2E/DX2                !
 ! D43   D(10,16,18,19)         54.7065         estimate D2E/DX2                !
 ! D44   D(10,16,18,22)       -125.2935         estimate D2E/DX2                !
 ! D45   D(13,17,20,21)        -75.6453         estimate D2E/DX2                !
 ! D46   D(13,17,20,26)        104.3547         estimate D2E/DX2                !
 ! D47   D(16,18,22,23)         65.6382         estimate D2E/DX2                !
 ! D48   D(16,18,22,24)       -174.3618         estimate D2E/DX2                !
 ! D49   D(16,18,22,25)        -54.3618         estimate D2E/DX2                !
 ! D50   D(19,18,22,23)       -114.3618         estimate D2E/DX2                !
 ! D51   D(19,18,22,24)          5.6382         estimate D2E/DX2                !
 ! D52   D(19,18,22,25)        125.6382         estimate D2E/DX2                !
 ! D53   D(17,20,26,27)        165.5049         estimate D2E/DX2                !
 ! D54   D(17,20,26,28)        -74.4951         estimate D2E/DX2                !
 ! D55   D(17,20,26,29)         45.5049         estimate D2E/DX2                !
 ! D56   D(21,20,26,27)        -14.4951         estimate D2E/DX2                !
 ! D57   D(21,20,26,28)        105.5049         estimate D2E/DX2                !
 ! D58   D(21,20,26,29)       -134.4951         estimate D2E/DX2                !
 --------------------------------------------------------------------------------
 Trust Radius=3.00D-01 FncErr=1.00D-07 GrdErr=1.00D-06 EigMax=2.50D+02 EigMin=1.00D-04
 Number of steps in this run=    146 maximum allowed number of steps=    174.
 GradGradGradGradGradGradGradGradGradGradGradGradGradGradGradGradGradGrad

                          Input orientation:                          
 ---------------------------------------------------------------------
 Center     Atomic      Atomic             Coordinates (Angstroms)
 Number     Number       Type             X           Y           Z
 ---------------------------------------------------------------------
      1          6           0       -2.779412    1.514706    0.000000
      2          1           0       -2.422739    2.019104    0.873652
      3          1           0       -2.422739    2.019104   -0.873652
      4          1           0       -3.849412    1.514719    0.000000
      5          6           0       -2.266096    0.062774    0.000000
      6          6           0       -0.726096    0.062756   -0.000004
      7          1           0       -0.369442   -0.946053    0.001955
      8          1           0       -0.369426    0.565456   -0.874634
      9          1           0       -0.369421    0.568850    0.872665
     10          6           0       -2.779436   -0.663182    1.257407
     11          1           0       -3.849436   -0.662982    1.257516
     12          1           0       -2.422585   -0.158907    2.131057
     13          6           0       -2.779441   -0.663184   -1.257403
     14          1           0       -3.849441   -0.663315   -1.257317
     15          1           0       -2.422906   -0.158691   -2.131056
     16          7           0       -2.289694   -2.049202    1.257259
     17          7           0       -2.289271   -2.049053   -1.257517
     18          6           0       -2.602254   -2.845737    2.227434
     19          1           0       -3.628614   -3.003453    2.485524
     20          6           0       -2.054461   -2.651976   -2.377673
     21          1           0       -2.869302   -3.011617   -2.970624
     22          6           0       -1.493353   -3.569483    3.013645
     23          1           0       -0.907963   -2.850813    3.548185
     24          1           0       -1.936116   -4.254768    3.705921
     25          1           0       -0.865509   -4.105731    2.333094
     26          6           0       -0.606187   -2.853903   -2.860714
     27          1           0       -0.591209   -3.574244   -3.651779
     28          1           0       -0.216387   -1.923674   -3.217967
     29          1           0       -0.004697   -3.204091   -2.048016
 ---------------------------------------------------------------------
                    Distance matrix (angstroms):
                    1          2          3          4          5
     1  C    0.000000
     2  H    1.070000   0.000000
     3  H    1.070000   1.747303   0.000000
     4  H    1.070000   1.747303   1.747303   0.000000
     5  C    1.540000   2.148263   2.148263   2.148263   0.000000
     6  C    2.514809   2.732978   2.732976   3.444314   1.540000
     7  H    3.444313   3.710531   3.711451   4.262111   2.148263
     8  H    2.733878   3.063607   2.515788   3.711655   2.148263
     9  H    2.732077   2.513832   3.060878   3.710330   2.148263
    10  C    2.514809   2.732976   3.444314   2.732979   1.540000
    11  H    2.732878   3.062091   3.710919   2.514702   2.148263
    12  H    2.733077   2.514915   3.711065   3.062395   2.148263
    13  C    2.514810   3.444314   2.732979   2.732977   1.540000
    14  H    2.733054   3.711048   3.062360   2.514891   2.148263
    15  H    2.732902   3.710937   2.514728   3.062126   2.148263
    16  N    3.810769   4.088517   4.594518   4.088393   2.457987
    17  N    3.810770   4.594518   4.088407   4.088504   2.457987
    18  C    4.899623   5.052883   5.771970   5.052765   3.678845
    19  H    5.226159   5.410947   6.161516   5.161440   4.175647
    20  C    4.851816   5.703133   4.921046   5.122160   3.614966
    21  H    5.414821   6.347128   5.468534   5.502085   4.317446
    22  C    6.048552   6.056042   6.870745   6.362561   4.782518
    23  H    5.928718   5.758800   6.750058   6.348198   4.787811
    24  H    6.908822   6.900726   7.782721   7.119096   5.699465
    25  H    6.379315   6.486026   7.086733   6.777644   4.978092
    26  C    5.656088   6.402464   5.567268   6.147117   4.409760
    27  H    6.634843   7.424256   6.508306   7.060377   5.419284
    28  H    5.361610   6.095476   5.090118   5.947833   4.301464
    29  H    5.844694   6.454830   5.874336   6.422100   4.469977
                    6          7          8          9         10
     6  C    0.000000
     7  H    1.070000   0.000000
     8  H    1.070000   1.747303   0.000000
     9  H    1.070000   1.747303   1.747303   0.000000
    10  C    2.514810   2.732077   3.444314   2.733880   0.000000
    11  H    3.444314   3.710380   4.262111   3.711606   1.070000
    12  H    2.732879   3.060730   3.711380   2.515683   1.070000
    13  C    2.514809   2.733879   2.732077   3.444313   2.514809
    14  H    3.444314   3.711617   3.710368   4.262111   2.732901
    15  H    2.733054   3.063722   2.513914   3.710587   3.444314
    16  N    2.913059   2.545603   3.881860   3.269489   1.470000
    17  N    2.912832   2.547278   3.266200   3.882901   2.913029
    18  C    4.115917   3.680626   5.122947   4.298877   2.394972
    19  H    4.899397   4.585108   5.886432   5.097549   2.776013
    20  C    3.845469   3.378179   3.930692   4.876246   4.206506
    21  H    4.782226   4.399101   4.841282   5.817218   4.837300
    22  C    4.781623   4.149198   5.786160   4.792997   3.631112
    23  H    4.594736   4.061264   5.614468   4.375218   3.679104
    24  H    5.817133   5.207824   6.831586   5.809403   4.427855
    25  H    4.779023   3.957759   5.688199   4.922465   4.083058
    26  C    4.087168   3.448306   3.961387   5.070446   5.145988
    27  H    5.155718   4.506256   4.989874   6.138813   6.112506
    28  H    3.815887   3.368541   3.422046   4.792637   5.309145
    29  H    3.922634   3.071507   3.964762   4.785236   5.008114
                   11         12         13         14         15
    11  H    0.000000
    12  H    1.747303   0.000000
    13  C    2.733076   3.444314   0.000000
    14  H    2.514833   3.710987   1.070000   0.000000
    15  H    3.711026   4.262112   1.070000   1.747303   0.000000
    16  N    2.086720   2.086720   2.912803   3.267504   3.882326
    17  N    3.268134   3.882378   1.470000   2.086720   2.086720
    18  C    2.694554   2.694555   4.115704   4.296735   5.123359
    19  H    2.652276   3.109919   4.495270   4.419714   5.555107
    20  C    4.515820   5.165225   2.394972   2.903777   2.532399
    21  H    4.934969   5.862138   2.908322   3.067673   3.007214
    22  C    4.133143   3.643414   5.323763   5.677859   6.242237
    23  H    4.322734   3.398337   5.601948   6.044029   6.465010
    24  H    4.749358   4.415080   6.184274   6.418183   7.147385
    25  H    4.681155   4.247673   5.329721   5.800442   6.158997
    26  C    5.681428   5.956516   3.477483   4.229451   3.331222
    27  H    6.572113   6.961297   4.358402   4.982272   4.163378
    28  H    5.900706   6.049278   3.464374   4.316449   3.027419
    29  H    5.671489   5.708238   3.844539   4.675767   3.889613
                   16         17         18         19         20
    16  N    0.000000
    17  N    2.514775   0.000000
    18  C    1.293600   3.588529   0.000000
    19  H    2.052301   4.088407   1.070000   0.000000
    20  C    3.692072   1.293600   4.641619   5.123688   0.000000
    21  H    4.374606   2.048829   5.207555   5.508736   1.070000
    22  C    2.455668   4.603044   1.540000   2.271265   5.497542
    23  H    2.792867   5.064148   2.148263   2.924806   6.039022
    24  H    3.314436   5.442941   2.148263   2.433045   6.292301
    25  H    2.723056   4.376014   2.148263   2.978759   5.071324
    26  C    4.521000   2.459837   5.465675   6.143265   1.540000
    27  H    5.413803   3.307887   6.256211   6.871545   2.148263
    28  H    4.933762   2.855859   6.016224   6.733426   2.148263
    29  H    4.180887   2.679231   5.015495   5.807411   2.148263
                   21         22         23         24         25
    21  H    0.000000
    22  C    6.165706   0.000000
    23  H    6.809374   1.070000   0.000000
    24  H    6.855108   1.070000   1.747303   0.000000
    25  H    5.774226   1.070000   1.747303   1.747303   0.000000
    26  C    2.271265   5.983913   6.416001   6.844840   5.348828
    27  H    2.443406   6.726200   7.243147   7.510502   6.014684
    28  H    2.877978   6.570565   6.864305   7.505444   5.999750
    29  H    3.015661   5.288669   5.679627   6.159715   4.555005
                   26         27         28         29
    26  C    0.000000
    27  H    1.070000   0.000000
    28  H    1.070000   1.747303   0.000000
    29  H    1.070000   1.747303   1.747303   0.000000
 Stoichiometry    C9H18N2
 Framework group  C1[X(C9H18N2)]
 Deg. of freedom    81
 Full point group                 C1      NOp   1
 Largest Abelian subgroup         C1      NOp   1
 Largest concise Abelian subgroup C1      NOp   1
                         Standard orientation:                         
 ---------------------------------------------------------------------
 Center     Atomic      Atomic             Coordinates (Angstroms)
 Number     Number       Type             X           Y           Z
 ---------------------------------------------------------------------
      1          6           0        0.638500    2.939138   -0.077539
      2          1           0       -0.049342    3.511247    0.509373
      3          1           0        1.637826    3.139215    0.248367
      4          1           0        0.538625    3.209193   -1.108071
      5          6           0        0.333938    1.439092    0.091878
      6          6           0        0.477687    1.050414    1.575073
      7          1           0        0.264185    0.008593    1.693078
      8          1           0        1.477547    1.248681    1.900451
      9          1           0       -0.208793    1.623914    2.162220
     10          6           0       -1.104347    1.151132   -0.377181
     11          1           0       -1.204282    1.421386   -1.407655
     12          1           0       -1.792200    1.723079    0.209875
     13          6           0        1.323912    0.615683   -0.752840
     14          1           0        1.223920    0.885620   -1.783391
     15          1           0        2.323251    0.815884   -0.427045
     16          7           0       -1.394965   -0.280782   -0.215738
     17          7           0        1.033338   -0.816189   -0.590945
     18          6           0       -2.554296   -0.747191   -0.550126
     19          1           0       -2.937596   -0.582081   -1.535377
     20          6           0        1.990493   -1.683057   -0.667064
     21          1           0        2.399669   -1.943131   -1.620918
     22          6           0       -3.385639   -1.542807    0.473331
     23          1           0       -3.672673   -0.898370    1.277826
     24          1           0       -4.261781   -1.930516   -0.003070
     25          1           0       -2.800085   -2.352333    0.856339
     26          6           0        2.543077   -2.342017    0.610442
     27          1           0        3.133443   -3.194168    0.345478
     28          1           0        3.150246   -1.638403    1.140700
     29          1           0        1.729481   -2.651328    1.232767
 ---------------------------------------------------------------------
 Rotational constants (GHZ):           1.0659477           0.8276549           0.5568595
 Standard basis: 6-31G(d) (6D, 7F)
 There are   201 symmetry adapted cartesian basis functions of A   symmetry.
 There are   201 symmetry adapted basis functions of A   symmetry.
   201 basis functions,   380 primitive gaussians,   201 cartesian basis functions
    43 alpha electrons       43 beta electrons
       nuclear repulsion energy       642.4440959585 Hartrees.
 NAtoms=   29 NActive=   29 NUniq=   29 SFac= 1.00D+00 NAtFMM=   60 NAOKFM=F Big=F
 Integral buffers will be    131072 words long.
 Raffenetti 2 integral format.
 Two-electron integral symmetry is turned on.
 ------------------------------------------------------------------------------
 Polarizable Continuum Model (PCM)
 =================================
 Model                : PCM.
 Atomic radii         : SMD-Coulomb.
 Polarization charges : Total charges.
 Charge compensation  : None.
 Solution method      : On-the-fly selection.
 Cavity type          : VdW (van der Waals Surface) (Alpha=1.000).
 Cavity algorithm     : GePol (No added spheres)
                        Default sphere list used, NSphG=   29.
                        Lebedev-Laikov grids with approx.  5.0 points / Ang**2.
                        Smoothing algorithm: York/Karplus (Gamma=1.0000).
                        Polarization charges: spherical gaussians, with
                                              point-specific exponents (IZeta= 3).
                        Self-potential: point-specific (ISelfS= 7).
                        Self-field    : sphere-specific E.n sum rule (ISelfD= 2).
 1st derivatives      : Analytical E(r).r(x)/FMM algorithm (CHGder, D1EAlg=3).
                        Cavity 1st derivative terms included.
 Solvent              : Toluene, Eps=   2.374100 Eps(inf)=   2.238315
 ------------------------------------------------------------------------------
 ------------------------------------------------------------------------------
 Atomic radii for non-electrostatic terms: SMD-CDS.
 ------------------------------------------------------------------------------
 Nuclear repulsion after PCM non-electrostatic terms =      642.4385320902 Hartrees.
 One-electron integrals computed using PRISM.
 NBasis=   201 RedAO= T EigKep=  3.01D-03  NBF=   201
 NBsUse=   201 1.00D-06 EigRej= -1.00D+00 NBFU=   201
 ExpMin= 1.61D-01 ExpMax= 4.17D+03 ExpMxC= 6.27D+02 IAcc=3 IRadAn=         5 AccDes= 0.00D+00
 Harris functional with IExCor=  402 and IRadAn=       5 diagonalized for initial guess.
 HarFok:  IExCor=  402 AccDes= 0.00D+00 IRadAn=         5 IDoV= 1 UseB2=F ITyADJ=14
 ICtDFT=  3500011 ScaDFX=  1.000000  1.000000  1.000000  1.000000
 FoFCou: FMM=F IPFlag=           0 FMFlag=      100000 FMFlg1=           0
         NFxFlg=           0 DoJE=T BraDBF=F KetDBF=T FulRan=T
         wScrn=  0.000000 ICntrl=       500 IOpCl=  0 I1Cent=   200000004 NGrid=           0
         NMat0=    1 NMatS0=      1 NMatT0=    0 NMatD0=    1 NMtDS0=    0 NMtDT0=    0
 Petite list used in FoFCou.
 Requested convergence on RMS density matrix=1.00D-08 within 128 cycles.
 Requested convergence on MAX density matrix=1.00D-06.
 Requested convergence on             energy=1.00D-06.
 No special actions if energy rises.
 Inv3:  Mode=1 IEnd=    12253323.
 Iteration    1 A*A^-1 deviation from unit magnitude is 3.89D-15 for   2008.
 Iteration    1 A*A^-1 deviation from orthogonality  is 2.66D-15 for   1989   1611.
 Iteration    1 A^-1*A deviation from unit magnitude is 3.66D-15 for   2008.
 Iteration    1 A^-1*A deviation from orthogonality  is 1.78D-15 for   2021   1640.
 Error on total polarization charges =  0.02914
 SCF Done:  E(RB3LYP) =  -463.149162635     A.U. after   15 cycles
            NFock= 15  Conv=0.35D-08     -V/T= 2.0087
 SMD-CDS (non-electrostatic) energy       (kcal/mol) =      -3.49
 (included in total energy above)

 **********************************************************************

            Population analysis using the SCF Density.

 **********************************************************************

 Orbital symmetries:
       Occupied  (A) (A) (A) (A) (A) (A) (A) (A) (A) (A) (A) (A)
                 (A) (A) (A) (A) (A) (A) (A) (A) (A) (A) (A) (A)
                 (A) (A) (A) (A) (A) (A) (A) (A) (A) (A) (A) (A)
                 (A) (A) (A) (A) (A) (A) (A)
       Virtual   (A) (A) (A) (A) (A) (A) (A) (A) (A) (A) (A) (A)
                 (A) (A) (A) (A) (A) (A) (A) (A) (A) (A) (A) (A)
                 (A) (A) (A) (A) (A) (A) (A) (A) (A) (A) (A) (A)
                 (A) (A) (A) (A) (A) (A) (A) (A) (A) (A) (A) (A)
                 (A) (A) (A) (A) (A) (A) (A) (A) (A) (A) (A) (A)
                 (A) (A) (A) (A) (A) (A) (A) (A) (A) (A) (A) (A)
                 (A) (A) (A) (A) (A) (A) (A) (A) (A) (A) (A) (A)
                 (A) (A) (A) (A) (A) (A) (A) (A) (A) (A) (A) (A)
                 (A) (A) (A) (A) (A) (A) (A) (A) (A) (A) (A) (A)
                 (A) (A) (A) (A) (A) (A) (A) (A) (A) (A) (A) (A)
                 (A) (A) (A) (A) (A) (A) (A) (A) (A) (A) (A) (A)
                 (A) (A) (A) (A) (A) (A) (A) (A) (A) (A) (A) (A)
                 (A) (A) (A) (A) (A) (A) (A) (A) (A) (A) (A) (A)
                 (A) (A)
 The electronic state is 1-A.
 Alpha  occ. eigenvalues --  -14.29218 -14.27809 -10.23488 -10.21966 -10.19915
 Alpha  occ. eigenvalues --  -10.19262 -10.17494 -10.16875 -10.16758 -10.15606
 Alpha  occ. eigenvalues --  -10.14030  -0.89343  -0.87719  -0.79992  -0.72914
 Alpha  occ. eigenvalues --   -0.72318  -0.67333  -0.66296  -0.65899  -0.55585
 Alpha  occ. eigenvalues --   -0.54318  -0.52012  -0.47426  -0.46594  -0.45471
 Alpha  occ. eigenvalues --   -0.42989  -0.42494  -0.41879  -0.41309  -0.40348
 Alpha  occ. eigenvalues --   -0.39309  -0.38405  -0.38016  -0.37910  -0.36650
 Alpha  occ. eigenvalues --   -0.36234  -0.32574  -0.31565  -0.31075  -0.29770
 Alpha  occ. eigenvalues --   -0.24341  -0.18944  -0.16309
 Alpha virt. eigenvalues --   -0.04816  -0.01029   0.09493   0.12502   0.13395
 Alpha virt. eigenvalues --    0.14156   0.14252   0.15286   0.15654   0.15888
 Alpha virt. eigenvalues --    0.17792   0.18498   0.19136   0.19690   0.19904
 Alpha virt. eigenvalues --    0.20191   0.21077   0.22252   0.22985   0.23966
 Alpha virt. eigenvalues --    0.24221   0.24870   0.25327   0.26561   0.27432
 Alpha virt. eigenvalues --    0.27704   0.29329   0.30571   0.35960   0.36845
 Alpha virt. eigenvalues --    0.50088   0.52236   0.53323   0.54374   0.54890
 Alpha virt. eigenvalues --    0.55272   0.55996   0.56646   0.57231   0.57873
 Alpha virt. eigenvalues --    0.59396   0.60205   0.62586   0.63630   0.64779
 Alpha virt. eigenvalues --    0.66181   0.68482   0.71263   0.72009   0.73675
 Alpha virt. eigenvalues --    0.74400   0.77637   0.77780   0.79334   0.80100
 Alpha virt. eigenvalues --    0.83194   0.85783   0.86356   0.87561   0.88508
 Alpha virt. eigenvalues --    0.89454   0.90073   0.90276   0.92170   0.93245
 Alpha virt. eigenvalues --    0.93444   0.94023   0.94457   0.95518   0.95851
 Alpha virt. eigenvalues --    0.96500   0.97446   0.97782   0.98855   0.99308
 Alpha virt. eigenvalues --    0.99701   1.01485   1.01971   1.06242   1.08997
 Alpha virt. eigenvalues --    1.10849   1.12955   1.21934   1.22787   1.25883
 Alpha virt. eigenvalues --    1.30265   1.37465   1.38129   1.40293   1.46270
 Alpha virt. eigenvalues --    1.47337   1.52073   1.54015   1.58982   1.64110
 Alpha virt. eigenvalues --    1.65391   1.65799   1.69929   1.72941   1.76382
 Alpha virt. eigenvalues --    1.79179   1.80851   1.83402   1.86730   1.87758
 Alpha virt. eigenvalues --    1.89139   1.91699   1.91996   1.93974   1.98120
 Alpha virt. eigenvalues --    1.98528   2.04475   2.05005   2.08750   2.10029
 Alpha virt. eigenvalues --    2.11631   2.12176   2.14531   2.18177   2.19860
 Alpha virt. eigenvalues --    2.21000   2.24025   2.25818   2.26883   2.28546
 Alpha virt. eigenvalues --    2.29538   2.30077   2.30960   2.32506   2.34350
 Alpha virt. eigenvalues --    2.35069   2.37082   2.42787   2.51809   2.55217
 Alpha virt. eigenvalues --    2.56628   2.58878   2.62050   2.68582   2.72185
 Alpha virt. eigenvalues --    2.74080   2.76855   2.79990   2.89138   2.95109
 Alpha virt. eigenvalues --    2.97677   2.99326   3.97221   4.01875   4.13028
 Alpha virt. eigenvalues --    4.15224   4.22361   4.33291   4.38916   4.39267
 Alpha virt. eigenvalues --    4.40686   4.47671   4.72820
          Condensed to atoms (all electrons):
               1          2          3          4          5          6
     1  C    5.172938   0.370965   0.370168   0.365557   0.348428  -0.058687
     2  H    0.370965   0.566450  -0.029935  -0.030330  -0.026879  -0.005371
     3  H    0.370168  -0.029935   0.569014  -0.030039  -0.027895  -0.005001
     4  H    0.365557  -0.030330  -0.030039   0.576988  -0.031074   0.007040
     5  C    0.348428  -0.026879  -0.027895  -0.031074   4.916806   0.373622
     6  C   -0.058687  -0.005371  -0.005001   0.007040   0.373622   5.175834
     7  H    0.006463  -0.000085  -0.000040  -0.000194  -0.031002   0.364868
     8  H   -0.004827  -0.000221   0.004648  -0.000029  -0.033828   0.365645
     9  H   -0.004068   0.004293  -0.000200  -0.000021  -0.032982   0.365588
    10  C   -0.053696  -0.005211   0.005370  -0.006056   0.385013  -0.059264
    11  H   -0.002709  -0.000421  -0.000068   0.005894  -0.038156   0.007826
    12  H   -0.002844   0.005148  -0.000244  -0.000462  -0.039736  -0.007674
    13  C   -0.050864   0.005345  -0.005619  -0.005400   0.377275  -0.058666
    14  H   -0.000877  -0.000168  -0.000349   0.006406  -0.048561   0.007890
    15  H   -0.002486  -0.000224   0.005206  -0.000529  -0.037863  -0.008381
    16  N    0.003843   0.000025  -0.000101  -0.000004  -0.057593  -0.007159
    17  N    0.004349  -0.000106   0.000022   0.000005  -0.063495  -0.007356
    18  C   -0.000195  -0.000014   0.000003  -0.000001   0.005860   0.000321
    19  H    0.000011  -0.000000   0.000000   0.000003  -0.000254   0.000031
    20  C   -0.000178   0.000003  -0.000024   0.000002   0.005531   0.000039
    21  H    0.000020  -0.000000   0.000000   0.000002  -0.000642   0.000034
    22  C    0.000002   0.000000  -0.000000  -0.000000  -0.000122   0.000017
    23  H   -0.000000   0.000000  -0.000000  -0.000000  -0.000057   0.000012
    24  H   -0.000000  -0.000000   0.000000   0.000000   0.000000   0.000001
    25  H    0.000000  -0.000000   0.000000   0.000000  -0.000001  -0.000022
    26  C   -0.000006  -0.000000   0.000000  -0.000000   0.000362   0.000252
    27  H    0.000000   0.000000  -0.000000   0.000000  -0.000011   0.000009
    28  H   -0.000002   0.000000   0.000001  -0.000000  -0.000131   0.000109
    29  H    0.000002  -0.000000  -0.000000   0.000000  -0.000081  -0.000197
               7          8          9         10         11         12
     1  C    0.006463  -0.004827  -0.004068  -0.053696  -0.002709  -0.002844
     2  H   -0.000085  -0.000221   0.004293  -0.005211  -0.000421   0.005148
     3  H   -0.000040   0.004648  -0.000200   0.005370  -0.000068  -0.000244
     4  H   -0.000194  -0.000029  -0.000021  -0.006056   0.005894  -0.000462
     5  C   -0.031002  -0.033828  -0.032982   0.385013  -0.038156  -0.039736
     6  C    0.364868   0.365645   0.365588  -0.059264   0.007826  -0.007674
     7  H    0.518479  -0.027600  -0.026631  -0.008725   0.000458  -0.000284
     8  H   -0.027600   0.599992  -0.032617   0.005892  -0.000137  -0.000136
     9  H   -0.026631  -0.032617   0.594752  -0.006145  -0.000113   0.004654
    10  C   -0.008725   0.005892  -0.006145   4.976440   0.329598   0.376033
    11  H    0.000458  -0.000137  -0.000113   0.329598   0.677999  -0.045710
    12  H   -0.000284  -0.000136   0.004654   0.376033  -0.045710   0.596231
    13  C   -0.007983  -0.005831   0.006089  -0.044199  -0.012213   0.006374
    14  H    0.000450  -0.000108  -0.000138  -0.012709   0.004852  -0.000089
    15  H   -0.000147   0.004749  -0.000110   0.006395  -0.000142  -0.000205
    16  N    0.016639   0.000504  -0.000455   0.285075  -0.048848  -0.032082
    17  N    0.018070  -0.000473   0.000654  -0.010070  -0.000144  -0.000101
    18  C   -0.000739  -0.000005  -0.000052  -0.036386  -0.006710  -0.016718
    19  H    0.000064   0.000001  -0.000002  -0.012212   0.013645  -0.000904
    20  C   -0.001058  -0.000118   0.000012   0.000809   0.000012   0.000008
    21  H    0.000127  -0.000003   0.000001  -0.000096  -0.000003  -0.000000
    22  C   -0.000068  -0.000002   0.000002   0.006506  -0.000970   0.000969
    23  H    0.000020  -0.000000   0.000012  -0.000337  -0.000007   0.001078
    24  H    0.000003   0.000000  -0.000000  -0.000301   0.000062  -0.000059
    25  H    0.000134   0.000001  -0.000001  -0.000011   0.000045  -0.000100
    26  C   -0.000436   0.000024  -0.000014   0.000049   0.000000   0.000000
    27  H    0.000038  -0.000001   0.000000  -0.000001  -0.000000  -0.000000
    28  H    0.000088   0.000329   0.000000   0.000005  -0.000000  -0.000000
    29  H    0.001281  -0.000018   0.000006  -0.000020   0.000000  -0.000000
              13         14         15         16         17         18
     1  C   -0.050864  -0.000877  -0.002486   0.003843   0.004349  -0.000195
     2  H    0.005345  -0.000168  -0.000224   0.000025  -0.000106  -0.000014
     3  H   -0.005619  -0.000349   0.005206  -0.000101   0.000022   0.000003
     4  H   -0.005400   0.006406  -0.000529  -0.000004   0.000005  -0.000001
     5  C    0.377275  -0.048561  -0.037863  -0.057593  -0.063495   0.005860
     6  C   -0.058666   0.007890  -0.008381  -0.007159  -0.007356   0.000321
     7  H   -0.007983   0.000450  -0.000147   0.016639   0.018070  -0.000739
     8  H   -0.005831  -0.000108   0.004749   0.000504  -0.000473  -0.000005
     9  H    0.006089  -0.000138  -0.000110  -0.000455   0.000654  -0.000052
    10  C   -0.044199  -0.012709   0.006395   0.285075  -0.010070  -0.036386
    11  H   -0.012213   0.004852  -0.000142  -0.048848  -0.000144  -0.006710
    12  H    0.006374  -0.000089  -0.000205  -0.032082  -0.000101  -0.016718
    13  C    4.943570   0.342833   0.376600  -0.006528   0.293723   0.001162
    14  H    0.342833   0.676596  -0.046438   0.000366  -0.052495  -0.000047
    15  H    0.376600  -0.046438   0.607198  -0.000106  -0.033629   0.000012
    16  N   -0.006528   0.000366  -0.000106   6.829616  -0.005767   0.521102
    17  N    0.293723  -0.052495  -0.033629  -0.005767   6.861774  -0.000308
    18  C    0.001162  -0.000047   0.000012   0.521102  -0.000308   4.864635
    19  H   -0.000167  -0.000017  -0.000001  -0.049811   0.000028   0.328411
    20  C   -0.035970  -0.002472  -0.024614  -0.000166   0.552782  -0.000041
    21  H   -0.007133   0.006233  -0.000619   0.000043  -0.056323  -0.000009
    22  C    0.000008   0.000001   0.000000  -0.084203  -0.000020   0.352278
    23  H    0.000002  -0.000000  -0.000000  -0.005549  -0.000011  -0.028117
    24  H   -0.000000  -0.000000  -0.000000   0.005281  -0.000001  -0.021268
    25  H   -0.000006   0.000000   0.000000   0.004228   0.000091  -0.023832
    26  C    0.005922  -0.000981   0.002133  -0.000080  -0.104046   0.000010
    27  H   -0.000271   0.000038  -0.000138  -0.000001   0.006270  -0.000000
    28  H   -0.000433  -0.000013   0.002472  -0.000015  -0.004639  -0.000000
    29  H    0.000094   0.000040  -0.000162   0.000141   0.005448  -0.000006
              19         20         21         22         23         24
     1  C    0.000011  -0.000178   0.000020   0.000002  -0.000000  -0.000000
     2  H   -0.000000   0.000003  -0.000000   0.000000   0.000000  -0.000000
     3  H    0.000000  -0.000024   0.000000  -0.000000  -0.000000   0.000000
     4  H    0.000003   0.000002   0.000002  -0.000000  -0.000000   0.000000
     5  C   -0.000254   0.005531  -0.000642  -0.000122  -0.000057   0.000000
     6  C    0.000031   0.000039   0.000034   0.000017   0.000012   0.000001
     7  H    0.000064  -0.001058   0.000127  -0.000068   0.000020   0.000003
     8  H    0.000001  -0.000118  -0.000003  -0.000002  -0.000000   0.000000
     9  H   -0.000002   0.000012   0.000001   0.000002   0.000012  -0.000000
    10  C   -0.012212   0.000809  -0.000096   0.006506  -0.000337  -0.000301
    11  H    0.013645   0.000012  -0.000003  -0.000970  -0.000007   0.000062
    12  H   -0.000904   0.000008  -0.000000   0.000969   0.001078  -0.000059
    13  C   -0.000167  -0.035970  -0.007133   0.000008   0.000002  -0.000000
    14  H   -0.000017  -0.002472   0.006233   0.000001  -0.000000  -0.000000
    15  H   -0.000001  -0.024614  -0.000619   0.000000  -0.000000  -0.000000
    16  N   -0.049811  -0.000166   0.000043  -0.084203  -0.005549   0.005281
    17  N    0.000028   0.552782  -0.056323  -0.000020  -0.000011  -0.000001
    18  C    0.328411  -0.000041  -0.000009   0.352278  -0.028117  -0.021268
    19  H    0.680824   0.000009  -0.000002  -0.092958   0.002871   0.006551
    20  C    0.000009   4.816970   0.324161   0.000001  -0.000000   0.000000
    21  H   -0.000002   0.324161   0.705885   0.000000  -0.000000  -0.000000
    22  C   -0.092958   0.000001   0.000000   5.224656   0.382803   0.333528
    23  H    0.002871  -0.000000  -0.000000   0.382803   0.522770  -0.033006
    24  H    0.006551   0.000000  -0.000000   0.333528  -0.033006   0.582278
    25  H    0.005439   0.000005   0.000000   0.356866  -0.022611  -0.021085
    26  C    0.000000   0.334563  -0.109372  -0.000000   0.000000   0.000000
    27  H   -0.000000  -0.018588   0.009010   0.000000  -0.000000  -0.000000
    28  H   -0.000000  -0.026473   0.002801  -0.000000  -0.000000  -0.000000
    29  H    0.000000  -0.020246   0.005434  -0.000001   0.000000   0.000000
              25         26         27         28         29
     1  C    0.000000  -0.000006   0.000000  -0.000002   0.000002
     2  H   -0.000000  -0.000000   0.000000   0.000000  -0.000000
     3  H    0.000000   0.000000  -0.000000   0.000001  -0.000000
     4  H    0.000000  -0.000000   0.000000  -0.000000   0.000000
     5  C   -0.000001   0.000362  -0.000011  -0.000131  -0.000081
     6  C   -0.000022   0.000252   0.000009   0.000109  -0.000197
     7  H    0.000134  -0.000436   0.000038   0.000088   0.001281
     8  H    0.000001   0.000024  -0.000001   0.000329  -0.000018
     9  H   -0.000001  -0.000014   0.000000   0.000000   0.000006
    10  C   -0.000011   0.000049  -0.000001   0.000005  -0.000020
    11  H    0.000045   0.000000  -0.000000  -0.000000   0.000000
    12  H   -0.000100   0.000000  -0.000000  -0.000000  -0.000000
    13  C   -0.000006   0.005922  -0.000271  -0.000433   0.000094
    14  H    0.000000  -0.000981   0.000038  -0.000013   0.000040
    15  H    0.000000   0.002133  -0.000138   0.002472  -0.000162
    16  N    0.004228  -0.000080  -0.000001  -0.000015   0.000141
    17  N    0.000091  -0.104046   0.006270  -0.004639   0.005448
    18  C   -0.023832   0.000010  -0.000000  -0.000000  -0.000006
    19  H    0.005439   0.000000  -0.000000  -0.000000   0.000000
    20  C    0.000005   0.334563  -0.018588  -0.026473  -0.020246
    21  H    0.000000  -0.109372   0.009010   0.002801   0.005434
    22  C    0.356866  -0.000000   0.000000  -0.000000  -0.000001
    23  H   -0.022611   0.000000  -0.000000  -0.000000   0.000000
    24  H   -0.021085   0.000000  -0.000000  -0.000000   0.000000
    25  H    0.518355  -0.000002  -0.000000   0.000000   0.000009
    26  C   -0.000002   5.306215   0.317882   0.376855   0.354875
    27  H   -0.000000   0.317882   0.592588  -0.031984  -0.020976
    28  H    0.000000   0.376855  -0.031984   0.518606  -0.020936
    29  H    0.000009   0.354875  -0.020976  -0.020936   0.506361
 Mulliken charges:
               1
     1  C   -0.461308
     2  H    0.146732
     3  H    0.145082
     4  H    0.142242
     5  C    0.057466
     6  C   -0.451361
     7  H    0.177809
     8  H    0.124169
     9  H    0.127485
    10  C   -0.121744
    11  H    0.115959
    12  H    0.156856
    13  C   -0.117714
    14  H    0.119761
    15  H    0.151025
    16  N   -0.368395
    17  N   -0.404232
    18  C    0.060655
    19  H    0.118440
    20  C    0.095041
    21  H    0.120451
    22  C   -0.479296
    23  H    0.180127
    24  H    0.148016
    25  H    0.182495
    26  C   -0.484206
    27  H    0.146136
    28  H    0.183358
    29  H    0.188951
 Sum of Mulliken charges =  -0.00000
 Mulliken charges with hydrogens summed into heavy atoms:
               1
     1  C   -0.027252
     5  C    0.057466
     6  C   -0.021898
    10  C    0.151071
    13  C    0.153072
    16  N   -0.368395
    17  N   -0.404232
    18  C    0.179094
    20  C    0.215492
    22  C    0.031341
    26  C    0.034239
 Electronic spatial extent (au):  <R**2>=           2276.6350
 Charge=             -0.0000 electrons
 Dipole moment (field-independent basis, Debye):
    X=              0.3303    Y=             -0.0017    Z=             -0.4266  Tot=              0.5395
 Quadrupole moment (field-independent basis, Debye-Ang):
   XX=            -59.0959   YY=            -66.6322   ZZ=            -69.5334
   XY=             -1.7395   XZ=              0.0244   YZ=             -0.1521
 Traceless Quadrupole moment (field-independent basis, Debye-Ang):
   XX=              5.9913   YY=             -1.5450   ZZ=             -4.4463
   XY=             -1.7395   XZ=              0.0244   YZ=             -0.1521
 Octapole moment (field-independent basis, Debye-Ang**2):
  XXX=             -4.3906  YYY=            -13.6229  ZZZ=             -3.4591  XYY=              1.0065
  XXY=            -11.0265  XXZ=              0.2164  XZZ=             -1.7859  YZZ=             -2.4964
  YYZ=              1.1037  XYZ=             -0.3282
 Hexadecapole moment (field-independent basis, Debye-Ang**3):
 XXXX=          -1472.9156 YYYY=          -1204.5030 ZZZZ=           -357.6156 XXXY=              3.7004
 XXXZ=              2.9085 YYYX=            -18.4592 YYYZ=              2.8828 ZZZX=             -3.1305
 ZZZY=             -2.9962 XXYY=           -438.3550 XXZZ=           -309.5105 YYZZ=           -256.2938
 XXYZ=              8.4235 YYXZ=             -5.5231 ZZXY=             -3.2155
 N-N= 6.424385320902D+02 E-N=-2.359076250949D+03  KE= 4.591696805843D+02
 D1PCM: PCM CHGder 1st derivatives, ID1Alg=3 FixD1E=F DoIter=F DoCFld=F I1PDM=0.
 Calling FoFJK, ICntrl=      2127 FMM=F ISym2X=0 I1Cent= 0 IOpClX= 0 NMat=1 NMatS=1 NMatT=0.
 ***** Axes restored to original set *****
 -------------------------------------------------------------------
 Center     Atomic                   Forces (Hartrees/Bohr)
 Number     Number              X              Y              Z
 -------------------------------------------------------------------
      1        6           0.005819684   -0.026797289   -0.000447635
      2        1           0.004579351    0.011727632    0.013702435
      3        1           0.004628640    0.011945880   -0.013713836
      4        1          -0.019094963    0.004683085   -0.000059866
      5        6           0.004142573    0.003106420    0.001232672
      6        6          -0.021860352   -0.003412416    0.000262202
      7        1           0.006164762   -0.012950120    0.000354155
      8        1           0.009158870    0.009825600   -0.014328932
      9        1           0.009139758    0.009625049    0.014127154
     10        6          -0.007842461   -0.028022023   -0.047113723
     11        1          -0.026141036    0.008588899    0.003694109
     12        1           0.007164929    0.004244419    0.015593071
     13        6          -0.010178652   -0.024995211    0.037737449
     14        1          -0.025367699    0.009896082   -0.002225713
     15        1           0.005201392    0.006919388   -0.013907338
     16        7           0.035625225    0.006410887    0.062735761
     17        7           0.040190934    0.016749851   -0.055277531
     18        6           0.029507835    0.011892970   -0.031470154
     19        1          -0.021812625    0.003850269    0.021680254
     20        6           0.020123326    0.010605503    0.048051957
     21        1          -0.014903091   -0.002410770   -0.028297278
     22        6          -0.035659901   -0.003503824   -0.025828223
     23        1           0.008803871    0.013549828    0.006878538
     24        1          -0.004167043   -0.012997148    0.013006720
     25        1           0.014092725   -0.008406341   -0.009622546
     26        6          -0.038405745   -0.023704311    0.010178499
     27        1           0.005480480   -0.011620289   -0.015777460
     28        1           0.004078347    0.018114293   -0.004496295
     29        1           0.011530865   -0.002916314    0.013331552
 -------------------------------------------------------------------
 Cartesian Forces:  Max     0.062735761 RMS     0.019731104

 GradGradGradGradGradGradGradGradGradGradGradGradGradGradGradGradGradGrad
 Berny optimization.
 FormGI is forming the generalized inverse of G from B-inverse, IUseBI=4.
 Internal  Forces:  Max     0.051715221 RMS     0.011792135
 Search for a local minimum.
 Step number   1 out of a maximum of  146
 All quantities printed in internal units (Hartrees-Bohrs-Radians)
 Mixed Optimization -- RFO/linear search
 Second derivative matrix not updated -- first step.
 ITU=  0
     Eigenvalues ---    0.00237   0.00237   0.00237   0.00237   0.00237
     Eigenvalues ---    0.00237   0.00766   0.00766   0.00952   0.00956
     Eigenvalues ---    0.03099   0.03099   0.04739   0.04739   0.04739
     Eigenvalues ---    0.05064   0.05064   0.05720   0.05720   0.05720
     Eigenvalues ---    0.05720   0.05793   0.05793   0.07243   0.07243
     Eigenvalues ---    0.07243   0.07243   0.11076   0.11076   0.13638
     Eigenvalues ---    0.13638   0.14387   0.14387   0.16000   0.16000
     Eigenvalues ---    0.16000   0.16000   0.16000   0.16000   0.16000
     Eigenvalues ---    0.16000   0.16000   0.16000   0.16000   0.16000
     Eigenvalues ---    0.16000   0.16000   0.22000   0.22000   0.22068
     Eigenvalues ---    0.22068   0.25000   0.25000   0.28519   0.28519
     Eigenvalues ---    0.28519   0.28519   0.28519   0.28519   0.35740
     Eigenvalues ---    0.35740   0.37230   0.37230   0.37230   0.37230
     Eigenvalues ---    0.37230   0.37230   0.37230   0.37230   0.37230
     Eigenvalues ---    0.37230   0.37230   0.37230   0.37230   0.37230
     Eigenvalues ---    0.37230   0.37230   0.37230   0.37230   0.69002
     Eigenvalues ---    0.69002
 RFO step:  Lambda=-7.89727381D-02 EMin= 2.36824178D-03
 Linear search not attempted -- first point.
 Maximum step size (   0.300) exceeded in Quadratic search.
    -- Step size scaled by   0.868
 Iteration  1 RMS(Cart)=  0.14362285 RMS(Int)=  0.01003258
 Iteration  2 RMS(Cart)=  0.03399833 RMS(Int)=  0.00071453
 Iteration  3 RMS(Cart)=  0.00092594 RMS(Int)=  0.00037684
 Iteration  4 RMS(Cart)=  0.00000038 RMS(Int)=  0.00037684
 Variable       Old X    -DE/DX   Delta X   Delta X   Delta X     New X
                                 (Linear)    (Quad)   (Total)
    R1        2.02201   0.01825   0.00000   0.03511   0.03511   2.05712
    R2        2.02201   0.01837   0.00000   0.03535   0.03535   2.05735
    R3        2.02201   0.01909   0.00000   0.03674   0.03674   2.05874
    R4        2.91018   0.00283   0.00000   0.00674   0.00674   2.91692
    R5        2.91018   0.00261   0.00000   0.00622   0.00622   2.91640
    R6        2.91018   0.01001   0.00000   0.02387   0.02387   2.93404
    R7        2.91018   0.01107   0.00000   0.02641   0.02641   2.93658
    R8        2.02201   0.01427   0.00000   0.02745   0.02745   2.04946
    R9        2.02201   0.01938   0.00000   0.03730   0.03730   2.05930
   R10        2.02201   0.01912   0.00000   0.03679   0.03679   2.05880
   R11        2.02201   0.02614   0.00000   0.05030   0.05030   2.07231
   R12        2.02201   0.01712   0.00000   0.03295   0.03295   2.05496
   R13        2.77790  -0.00137   0.00000  -0.00272  -0.00272   2.77518
   R14        2.02201   0.02537   0.00000   0.04882   0.04882   2.07082
   R15        2.02201   0.01635   0.00000   0.03146   0.03146   2.05347
   R16        2.77790   0.00480   0.00000   0.00955   0.00955   2.78745
   R17        2.44455  -0.01949   0.00000  -0.02201  -0.02201   2.42254
   R18        2.44455  -0.01654   0.00000  -0.01868  -0.01868   2.42587
   R19        2.02201   0.02558   0.00000   0.04923   0.04923   2.07123
   R20        2.91018  -0.01479   0.00000  -0.03527  -0.03527   2.87491
   R21        2.02201   0.02785   0.00000   0.05358   0.05358   2.07559
   R22        2.91018  -0.01468   0.00000  -0.03502  -0.03502   2.87516
   R23        2.02201   0.01735   0.00000   0.03339   0.03339   2.05540
   R24        2.02201   0.01846   0.00000   0.03553   0.03553   2.05753
   R25        2.02201   0.01861   0.00000   0.03581   0.03581   2.05781
   R26        2.02201   0.01957   0.00000   0.03765   0.03765   2.05966
   R27        2.02201   0.01874   0.00000   0.03605   0.03605   2.05806
   R28        2.02201   0.01755   0.00000   0.03378   0.03378   2.05579
    A1        1.91063  -0.00394   0.00000  -0.01528  -0.01534   1.89529
    A2        1.91063  -0.00413   0.00000  -0.01459  -0.01472   1.89591
    A3        1.91063   0.00335   0.00000   0.01192   0.01182   1.92245
    A4        1.91063  -0.00422   0.00000  -0.01478  -0.01493   1.89570
    A5        1.91063   0.00364   0.00000   0.01300   0.01290   1.92353
    A6        1.91063   0.00530   0.00000   0.01974   0.01959   1.93022
    A7        1.91063   0.00242   0.00000   0.00268   0.00277   1.91341
    A8        1.91063  -0.00427   0.00000  -0.02471  -0.02441   1.88623
    A9        1.91063  -0.00584   0.00000  -0.03079  -0.03049   1.88014
   A10        1.91063  -0.00044   0.00000   0.00630   0.00578   1.91642
   A11        1.91063   0.00116   0.00000   0.01257   0.01213   1.92277
   A12        1.91063   0.00697   0.00000   0.03394   0.03341   1.94404
   A13        1.91063   0.00117   0.00000   0.00484   0.00481   1.91544
   A14        1.91063   0.00309   0.00000   0.01106   0.01102   1.92165
   A15        1.91063   0.00312   0.00000   0.01089   0.01086   1.92149
   A16        1.91063  -0.00173   0.00000  -0.00541  -0.00545   1.90518
   A17        1.91063  -0.00199   0.00000  -0.00687  -0.00690   1.90373
   A18        1.91063  -0.00366   0.00000  -0.01452  -0.01456   1.89607
   A19        1.91063  -0.00924   0.00000  -0.02253  -0.02416   1.88647
   A20        1.91063  -0.00219   0.00000  -0.00883  -0.00820   1.90243
   A21        1.91063   0.02580   0.00000   0.07927   0.07881   1.98944
   A22        1.91063   0.00038   0.00000  -0.01441  -0.01466   1.89597
   A23        1.91063   0.00104   0.00000   0.02817   0.02733   1.93796
   A24        1.91063  -0.01580   0.00000  -0.06166  -0.06120   1.84943
   A25        1.91063  -0.01023   0.00000  -0.03072  -0.03205   1.87858
   A26        1.91063  -0.00357   0.00000  -0.01415  -0.01405   1.89658
   A27        1.91063   0.02325   0.00000   0.07222   0.07201   1.98264
   A28        1.91063   0.00039   0.00000  -0.01486  -0.01541   1.89522
   A29        1.91063   0.00154   0.00000   0.02742   0.02726   1.93790
   A30        1.91063  -0.01138   0.00000  -0.03992  -0.03953   1.87111
   A31        2.09440   0.01452   0.00000   0.03833   0.03833   2.13273
   A32        2.09440   0.05172   0.00000   0.13651   0.13651   2.23091
   A33        2.09836   0.00489   0.00000   0.01957   0.01941   2.11776
   A34        2.09241   0.00492   0.00000   0.01428   0.01412   2.10654
   A35        2.09241  -0.00981   0.00000  -0.03385  -0.03399   2.05842
   A36        2.09241   0.00611   0.00000   0.02544   0.02525   2.11766
   A37        2.09836   0.00887   0.00000   0.02576   0.02559   2.12394
   A38        2.09241  -0.01498   0.00000  -0.05120  -0.05136   2.04105
   A39        1.91063  -0.00595   0.00000  -0.02392  -0.02383   1.88680
   A40        1.91063   0.00628   0.00000   0.02499   0.02486   1.93550
   A41        1.91063   0.00426   0.00000   0.01563   0.01545   1.92608
   A42        1.91063  -0.00032   0.00000  -0.00145  -0.00131   1.90932
   A43        1.91063  -0.00173   0.00000  -0.01060  -0.01057   1.90007
   A44        1.91063  -0.00254   0.00000  -0.00464  -0.00500   1.90563
   A45        1.91063   0.00962   0.00000   0.03809   0.03799   1.94862
   A46        1.91063  -0.00802   0.00000  -0.03248  -0.03241   1.87822
   A47        1.91063   0.00151   0.00000   0.00571   0.00538   1.91601
   A48        1.91063  -0.00104   0.00000  -0.00420  -0.00392   1.90672
   A49        1.91063  -0.00158   0.00000   0.00094   0.00049   1.91112
   A50        1.91063  -0.00049   0.00000  -0.00807  -0.00824   1.90239
    D1       -1.04720   0.00056   0.00000   0.00263   0.00268  -1.04452
    D2        1.04720  -0.00111   0.00000  -0.00314  -0.00338   1.04382
    D3        3.14159   0.00124   0.00000   0.00445   0.00469  -3.13690
    D4        1.04720   0.00002   0.00000  -0.00083  -0.00082   1.04637
    D5        3.14159  -0.00166   0.00000  -0.00660  -0.00688   3.13471
    D6       -1.04720   0.00069   0.00000   0.00099   0.00119  -1.04601
    D7        3.14159   0.00032   0.00000   0.00112   0.00115  -3.14045
    D8       -1.04720  -0.00135   0.00000  -0.00466  -0.00491  -1.05211
    D9        1.04720   0.00100   0.00000   0.00293   0.00316   1.05036
   D10        3.13965   0.00018   0.00000   0.00015   0.00015   3.13980
   D11       -1.04914   0.00066   0.00000   0.00326   0.00327  -1.04587
   D12        1.04526  -0.00002   0.00000  -0.00107  -0.00107   1.04419
   D13        1.04526   0.00419   0.00000   0.02491   0.02481   1.07006
   D14        3.13965   0.00468   0.00000   0.02803   0.02792  -3.11561
   D15       -1.04914   0.00400   0.00000   0.02369   0.02359  -1.02555
   D16       -1.04914  -0.00478   0.00000  -0.02821  -0.02811  -1.07725
   D17        1.04526  -0.00430   0.00000  -0.02510  -0.02500   1.02025
   D18        3.13965  -0.00498   0.00000  -0.02944  -0.02933   3.11032
   D19        1.04698  -0.00617   0.00000  -0.02555  -0.02558   1.02140
   D20       -1.04741   0.00036   0.00000   0.01130   0.01109  -1.03632
   D21        3.14138   0.00525   0.00000   0.04369   0.04357  -3.09824
   D22        3.14138  -0.00609   0.00000  -0.03354  -0.03354   3.10784
   D23        1.04698   0.00044   0.00000   0.00331   0.00314   1.05012
   D24       -1.04741   0.00533   0.00000   0.03570   0.03561  -1.01180
   D25       -1.04741  -0.00068   0.00000   0.00650   0.00680  -1.04062
   D26        3.14138   0.00586   0.00000   0.04335   0.04347  -3.09834
   D27        1.04698   0.01074   0.00000   0.07574   0.07595   1.12293
   D28       -1.04736   0.00647   0.00000   0.03086   0.03063  -1.01673
   D29        1.04703  -0.00150   0.00000  -0.01481  -0.01447   1.03256
   D30        3.14143  -0.00339   0.00000  -0.02814  -0.02793   3.11350
   D31        3.14143   0.00637   0.00000   0.03873   0.03858  -3.10318
   D32       -1.04736  -0.00160   0.00000  -0.00694  -0.00652  -1.05389
   D33        1.04703  -0.00349   0.00000  -0.02027  -0.01998   1.02705
   D34        1.04703   0.00193   0.00000   0.00253   0.00191   1.04895
   D35        3.14143  -0.00603   0.00000  -0.04314  -0.04319   3.09824
   D36       -1.04736  -0.00792   0.00000  -0.05647  -0.05665  -1.10401
   D37       -3.14159   0.00331   0.00000   0.02600   0.02424  -3.11735
   D38       -1.04720   0.00843   0.00000   0.06420   0.06539  -0.98181
   D39        1.04720  -0.00014   0.00000   0.02603   0.02660   1.07380
   D40       -2.59979  -0.00287   0.00000  -0.02097  -0.01970  -2.61949
   D41        1.58900  -0.00552   0.00000  -0.04436  -0.04548   1.54352
   D42       -0.50540   0.00003   0.00000  -0.01851  -0.01867  -0.52406
   D43        0.95481  -0.03136   0.00000  -0.24449  -0.24413   0.71068
   D44       -2.18678  -0.03467   0.00000  -0.27697  -0.27734  -2.46413
   D45       -1.32026   0.02588   0.00000   0.20097   0.20041  -1.11985
   D46        1.82133   0.02943   0.00000   0.23580   0.23636   2.05769
   D47        1.14560   0.00113   0.00000   0.01544   0.01536   1.16096
   D48       -3.04319   0.00093   0.00000   0.01432   0.01400  -3.02919
   D49       -0.94879   0.00427   0.00000   0.03351   0.03354  -0.91525
   D50       -1.99599  -0.00217   0.00000  -0.01692  -0.01675  -2.01274
   D51        0.09841  -0.00237   0.00000  -0.01804  -0.01811   0.08029
   D52        2.19280   0.00097   0.00000   0.00114   0.00143   2.19423
   D53        2.88861  -0.00023   0.00000  -0.00942  -0.00894   2.87967
   D54       -1.30018  -0.00053   0.00000  -0.01113  -0.01112  -1.31131
   D55        0.79421  -0.00511   0.00000  -0.03740  -0.03731   0.75690
   D56       -0.25299   0.00332   0.00000   0.02541   0.02551  -0.22748
   D57        1.84141   0.00302   0.00000   0.02370   0.02332   1.86473
   D58       -2.34738  -0.00156   0.00000  -0.00257  -0.00287  -2.35025
         Item               Value     Threshold  Converged?
 Maximum Force            0.051715     0.000450     NO 
 RMS     Force            0.011792     0.000300     NO 
 Maximum Displacement     0.538666     0.001800     NO 
 RMS     Displacement     0.157679     0.001200     NO 
 Predicted change in Energy=-5.299716D-02
 GradGradGradGradGradGradGradGradGradGradGradGradGradGradGradGradGradGrad

                          Input orientation:                          
 ---------------------------------------------------------------------
 Center     Atomic      Atomic             Coordinates (Angstroms)
 Number     Number       Type             X           Y           Z
 ---------------------------------------------------------------------
      1          6           0       -2.876592    1.513795    0.024993
      2          1           0       -2.553904    2.045690    0.918286
      3          1           0       -2.548423    2.073046   -0.849547
      4          1           0       -3.965103    1.468993    0.020817
      5          6           0       -2.274627    0.092575    0.005869
      6          6           0       -0.733945    0.181934    0.013832
      7          1           0       -0.308976   -0.815797    0.002241
      8          1           0       -0.385972    0.729070   -0.862002
      9          1           0       -0.393892    0.703421    0.907901
     10          6           0       -2.764709   -0.655213    1.275235
     11          1           0       -3.861069   -0.672047    1.258456
     12          1           0       -2.439116   -0.107692    2.156559
     13          6           0       -2.763757   -0.610963   -1.290519
     14          1           0       -3.859418   -0.616599   -1.272008
     15          1           0       -2.434786   -0.029126   -2.147285
     16          7           0       -2.218768   -2.011085    1.417490
     17          7           0       -2.230091   -1.975731   -1.459012
     18          6           0       -2.539292   -2.777530    2.393826
     19          1           0       -3.570864   -2.833136    2.760014
     20          6           0       -1.988685   -2.596649   -2.556333
     21          1           0       -2.795210   -2.855150   -3.255673
     22          6           0       -1.499984   -3.672399    3.052244
     23          1           0       -0.773565   -3.035611    3.552083
     24          1           0       -1.963624   -4.334038    3.782146
     25          1           0       -0.985941   -4.271358    2.302032
     26          6           0       -0.583860   -3.048484   -2.926717
     27          1           0       -0.596167   -3.773914   -3.740064
     28          1           0       -0.026110   -2.167142   -3.240153
     29          1           0       -0.096593   -3.485448   -2.057750
 ---------------------------------------------------------------------
                    Distance matrix (angstroms):
                    1          2          3          4          5
     1  C    0.000000
     2  H    1.088582   0.000000
     3  H    1.088705   1.768053   0.000000
     4  H    1.089441   1.769043   1.769010   0.000000
     5  C    1.543565   2.173743   2.174619   2.180014   0.000000
     6  C    2.522878   2.757513   2.759359   3.478068   1.543293
     7  H    3.467011   3.750593   3.753143   4.311366   2.165395
     8  H    2.757850   3.098845   2.546099   3.759924   2.173785
     9  H    2.756815   2.543117   3.099436   3.758533   2.173467
    10  C    2.506036   2.732531   3.464806   2.743495   1.552629
    11  H    2.696020   3.034878   3.701655   2.475202   2.161115
    12  H    2.713701   2.486675   3.715406   3.062020   2.166248
    13  C    2.501580   3.461309   2.728503   2.736614   1.553974
    14  H    2.680810   3.686399   3.021816   2.456067   2.155797
    15  H    2.700850   3.703616   2.473087   3.047441   2.162529
    16  N    3.846629   4.101090   4.682761   4.136584   2.534004
    17  N    3.846690   4.682758   4.106748   4.131136   2.534906
    18  C    4.913309   5.043896   5.835036   5.069228   3.742978
    19  H    5.182486   5.313108   6.176159   5.115364   4.222005
    20  C    4.934306   5.826127   5.003247   5.203593   3.725395
    21  H    5.464163   6.441925   5.489759   5.549978   4.426934
    22  C    6.160836   6.193631   7.023769   6.457575   4.904641
    23  H    6.128636   5.993840   6.973009   6.553413   4.961287
    24  H    7.010482   7.017910   7.927503   7.199215   5.826825
    25  H    6.498265   6.654198   7.254327   6.857914   5.096762
    26  C    5.897762   6.679500   5.865510   6.366189   4.617900
    27  H    6.880107   7.707189   6.808329   7.278876   5.639059
    28  H    5.686451   6.436638   5.482358   6.274637   4.549594
    29  H    6.087581   6.744528   6.194197   6.620597   4.669540
                    6          7          8          9         10
     6  C    0.000000
     7  H    1.084528   0.000000
     8  H    1.089737   1.771852   0.000000
     9  H    1.089470   1.770721   1.770106   0.000000
    10  C    2.532974   2.770726   3.484596   2.757098   0.000000
    11  H    3.472359   3.770424   4.305318   3.746480   1.096618
    12  H    2.753684   3.111269   3.745301   2.529821   1.087437
    13  C    2.539716   2.781930   2.762820   3.489544   2.566136
    14  H    3.472697   3.777437   3.747500   4.301666   2.772784
    15  H    2.758230   3.123841   2.534650   3.746469   3.494922
    16  N    2.997380   2.660628   4.007951   3.310346   1.468562
    17  N    3.010521   2.677945   3.327633   4.018925   3.083131
    18  C    4.205007   3.813447   5.247232   4.350601   2.409624
    19  H    4.967925   4.723862   5.995986   5.102030   2.756411
    20  C    3.987561   3.541067   4.062001   5.043287   4.364895
    21  H    4.915522   4.577589   4.937684   5.980393   5.036843
    22  C    4.967358   4.345249   5.994603   4.996943   3.722996
    23  H    4.782613   4.212457   5.814396   4.595238   3.849024
    24  H    6.008852   5.422504   7.049266   6.008438   4.523283
    25  H    5.013100   4.205736   5.947718   5.200245   4.158705
    26  C    4.370921   3.693135   4.309539   5.368163   5.304739
    27  H    5.455223   4.778890   5.348298   6.456859   6.291431
    28  H    4.075243   3.524098   3.764724   5.057840   5.493140
    29  H    4.259972   3.378714   4.390412   5.141021   5.122291
                   11         12         13         14         15
    11  H    0.000000
    12  H    1.773988   0.000000
    13  C    2.775806   3.498717   0.000000
    14  H    2.531072   3.745840   1.095832   0.000000
    15  H    3.747893   4.304563   1.086648   1.772233   0.000000
    16  N    2.124963   2.053699   3.096880   3.445246   4.084415
    17  N    3.426998   4.074999   1.475053   2.130004   2.074823
    18  C    2.732987   2.682232   4.280046   4.455412   5.309080
    19  H    2.647490   3.012152   4.690020   4.610152   5.764957
    20  C    4.665033   5.348752   2.479107   3.011599   2.637898
    21  H    5.126340   6.080097   2.983152   3.174677   3.056933
    22  C    4.218354   3.793594   5.461602   5.796896   6.417351
    23  H    4.514404   3.646130   5.769799   6.216588   6.654428
    24  H    4.835234   4.553090   6.342982   6.554225   7.342507
    25  H    4.723394   4.412368   5.428217   5.864119   6.316020
    26  C    5.822647   6.158728   3.656583   4.402431   3.626288
    27  H    6.728029   7.183858   4.550053   5.168051   4.465525
    28  H    6.097516   6.260066   3.703711   4.579523   3.401058
    29  H    5.751846   5.887024   3.995632   4.796513   4.173886
                   16         17         18         19         20
    16  N    0.000000
    17  N    2.876742   0.000000
    18  C    1.281954   3.947511   0.000000
    19  H    2.075164   4.509212   1.096050   0.000000
    20  C    4.023318   1.283717   4.983970   5.551825   0.000000
    21  H    4.783637   2.078636   5.655825   6.065527   1.098354
    22  C    2.439065   4.874748   1.521337   2.253509   5.731684
    23  H    2.773942   5.325025   2.127431   2.914319   6.243553
    24  H    3.324577   5.753465   2.163688   2.425012   6.572325
    25  H    2.722335   4.578566   2.157046   2.993335   5.235824
    26  C    4.756181   2.452556   5.674972   6.427089   1.521470
    27  H    5.686894   3.332622   6.511000   7.210056   2.174001
    28  H    5.150314   2.840181   6.199223   7.000773   2.122212
    29  H    4.330666   2.681333   5.126837   5.975527   2.149084
                   21         22         23         24         25
    21  H    0.000000
    22  C    6.491173   0.000000
    23  H    7.103884   1.087668   0.000000
    24  H    7.239444   1.088800   1.776255   0.000000
    25  H    6.013916   1.088949   1.770537   1.774973   0.000000
    26  C    2.244027   6.080833   6.481590   6.968876   5.384878
    27  H    2.431986   6.852929   7.331574   7.665985   6.075056
    28  H    2.853333   6.635688   6.888207   7.600136   6.005398
    29  H    3.019078   5.302499   5.668410   6.189531   4.518440
                   26         27         28         29
    26  C    0.000000
    27  H    1.089924   0.000000
    28  H    1.089078   1.776680   0.000000
    29  H    1.087875   1.778474   1.772279   0.000000
 Stoichiometry    C9H18N2
 Framework group  C1[X(C9H18N2)]
 Deg. of freedom    81
 Full point group                 C1      NOp   1
 Largest Abelian subgroup         C1      NOp   1
 Largest concise Abelian subgroup C1      NOp   1
                         Standard orientation:                         
 ---------------------------------------------------------------------
 Center     Atomic      Atomic             Coordinates (Angstroms)
 Number     Number       Type             X           Y           Z
 ---------------------------------------------------------------------
      1          6           0        0.400371    2.999144   -0.118118
      2          1           0       -0.348881    3.550511    0.447239
      3          1           0        1.387858    3.318801    0.210467
      4          1           0        0.289152    3.243583   -1.173940
      5          6           0        0.227933    1.482158    0.109062
      6          6           0        0.387918    1.161216    1.610113
      7          1           0        0.265298    0.095893    1.772135
      8          1           0        1.376489    1.463899    1.954550
      9          1           0       -0.362216    1.698181    2.189692
     10          6           0       -1.195455    1.082795   -0.365422
     11          1           0       -1.290174    1.354146   -1.423707
     12          1           0       -1.929943    1.646556    0.204859
     13          6           0        1.325281    0.752688   -0.714669
     14          1           0        1.198042    1.039648   -1.764579
     15          1           0        2.299421    1.096244   -0.377289
     16          7           0       -1.519951   -0.333674   -0.153300
     17          7           0        1.302344   -0.714077   -0.560218
     18          6           0       -2.642909   -0.838142   -0.510909
     19          1           0       -3.113141   -0.565353   -1.462641
     20          6           0        2.291385   -1.529033   -0.634885
     21          1           0        2.851142   -1.663697   -1.570257
     22          6           0       -3.342963   -1.870643    0.359913
     23          1           0       -3.648545   -1.383049    1.282895
     24          1           0       -4.220214   -2.273082   -0.144031
     25          1           0       -2.663099   -2.686404    0.601011
     26          6           0        2.713093   -2.384928    0.550221
     27          1           0        3.380555   -3.191283    0.246542
     28          1           0        3.230487   -1.737501    1.256784
     29          1           0        1.833090   -2.804367    1.033063
 ---------------------------------------------------------------------
 Rotational constants (GHZ):           1.0167317           0.7757171           0.5166297
 Standard basis: 6-31G(d) (6D, 7F)
 There are   201 symmetry adapted cartesian basis functions of A   symmetry.
 There are   201 symmetry adapted basis functions of A   symmetry.
   201 basis functions,   380 primitive gaussians,   201 cartesian basis functions
    43 alpha electrons       43 beta electrons
       nuclear repulsion energy       629.5904523527 Hartrees.
 NAtoms=   29 NActive=   29 NUniq=   29 SFac= 1.00D+00 NAtFMM=   60 NAOKFM=F Big=F
 Integral buffers will be    131072 words long.
 Raffenetti 2 integral format.
 Two-electron integral symmetry is turned on.
 ------------------------------------------------------------------------------
 Polarizable Continuum Model (PCM)
 =================================
 Model                : PCM.
 Atomic radii         : SMD-Coulomb.
 Polarization charges : Total charges.
 Charge compensation  : None.
 Solution method      : On-the-fly selection.
 Cavity type          : VdW (van der Waals Surface) (Alpha=1.000).
 Cavity algorithm     : GePol (No added spheres)
                        Default sphere list used, NSphG=   29.
                        Lebedev-Laikov grids with approx.  5.0 points / Ang**2.
                        Smoothing algorithm: York/Karplus (Gamma=1.0000).
                        Polarization charges: spherical gaussians, with
[...]
 007136,-0.00011866,0.00726843,0.00371969,-0.01934937,0.00009850,-0.000
 74550,0.00113189,-0.00003821,0.00006062,0.00002097,0.00001536,-0.00000
 597,-0.00000923,-0.06751893,-0.01778190,0.05901726,0.06525064,-0.00001
 877,0.00001669,0.00004111,0.00000151,0.00001894,0.00000292,0.00000703,
 -0.00002384,0.00003466,0.00000030,0.00000405,-0.00000998,-0.00009703,0
 .00028781,-0.00014974,0.00000428,0.00002915,0.00007138,0.00003822,-0.0
 0000781,-0.00003725,-0.00001609,-0.00003481,0.00002278,0.00000812,-0.0
 0000573,-0.00001143,-0.00006617,-0.00144853,-0.00285355,0.00017892,-0.
 00007683,0.00005086,0.00046582,-0.00067909,0.00023714,-0.00004990,-0.0
 0003287,-0.00004526,-0.00000257,0.00000723,-0.00001501,0.00000490,0.00
 001968,0.00004642,0.00345231,-0.00173074,0.00283374,0.00001415,0.00011
 288,0.00018883,-0.00986487,-0.01032079,0.02549232,0.00027235,0.0004612
 5,-0.00131423,0.00004581,-0.00007071,-0.00005423,-0.00002819,-0.000000
 92,0.00001243,-0.01880112,-0.06534239,0.07203530,0.01874687,0.07322993
 ,0.00003491,-0.00000794,-0.00005586,0.00000029,-0.00000166,0.00000479,
 -0.00001096,0.00003130,-0.00002057,-0.00000835,-0.00000293,0.00000521,
 -0.00007877,-0.00007744,0.00009940,-0.00001302,-0.00002593,-0.00003339
 ,-0.00002943,-0.00000091,0.00002459,0.00001117,0.00002364,-0.00002160,
 -0.00000263,0.00000644,0.00001047,0.00031028,0.00026405,0.00073042,-0.
 00014270,0.00003246,-0.00002973,-0.00017348,0.00023332,-0.00010646,0.0
 0007484,-0.00001136,0.00001515,-0.00000883,0.00000016,0.00000961,-0.00
 000577,0.00000877,-0.00004518,-0.00161573,0.00008563,-0.00099590,-0.00
 004748,0.00002199,-0.00012637,0.00303447,0.00248111,-0.00572679,-0.000
 68818,0.00029826,0.00050991,-0.00002562,-0.00000062,0.00008385,0.00001
 086,0.00002761,-0.00002404,0.06007212,0.07066943,-0.26899184,-0.065990
 74,-0.07877976,0.29217368,0.00009012,0.00000623,-0.00019490,-0.0000009
 3,0.00000692,0.00001215,-0.00003609,0.00008167,-0.00002120,-0.00001552
 ,-0.00000279,0.00000640,-0.00040958,0.00024725,0.00023351,-0.00007060,
 -0.00003213,-0.00001241,-0.00002129,-0.00001647,0.00001302,0.00002992,
 0.00001779,-0.00002071,-0.00000004,0.00001815,0.00000973,0.00091406,-0
 .00026115,-0.00162805,-0.00015836,-0.00000815,0.00001774,-0.00008867,-
 0.00004799,0.00008881,0.00008625,0.00007156,0.00005135,-0.00002148,0.0
 0000726,0.00000412,-0.00000820,-0.00001851,-0.00005539,-0.00095336,0.0
 0120341,-0.00003555,-0.00013043,-0.00010987,-0.00007333,0.00515395,0.0
 1425276,0.01382480,0.00003312,-0.00123663,-0.00057115,0.00001672,-0.00
 000123,0.00000756,0.00001937,0.00003052,-0.00000004,-0.05752301,-0.030
 87389,-0.02586476,0.00081629,0.00678581,0.00527910,0.05451535,-0.00011
 733,-0.00001481,0.00031906,-0.00000471,0.00001128,-0.00000652,0.000043
 98,-0.00012811,0.00004343,0.00000209,0.00001382,-0.00001265,0.00061141
 ,-0.00034039,-0.00050008,0.00008617,0.00000772,0.00004251,-0.00001956,
 -0.00000227,-0.00004258,-0.00004490,-0.00002903,0.00004619,0.00000006,
 0.00002754,0.00000047,-0.00036426,0.00040470,0.00308757,0.00029771,-0.
 00010379,0.00006646,-0.00009498,0.00025247,-0.00014776,0.00003190,-0.0
 0023355,-0.00013379,-0.00001412,0.00001714,-0.00000786,-0.00001029,0.0
 0008758,0.00006064,0.00339745,-0.00242895,-0.00135794,-0.00002068,0.00
 032029,0.00009168,-0.00672258,-0.02261573,-0.01434244,0.00056094,0.000
 89826,0.00102075,0.00001324,-0.00007588,0.00003922,-0.00002285,0.00003
 858,-0.00003786,-0.03250441,-0.20153530,-0.12640113,0.00168966,0.00860
 838,0.00574565,0.03382742,0.22175135,0.00002438,0.00001865,-0.00010595
 ,0.00000456,-0.00000084,0.00000332,-0.00001574,0.00004262,-0.00000307,
 0.00000220,-0.00000455,-0.00000004,-0.00022460,0.00020969,0.00006377,-
 0.00002858,0.00000015,-0.00000428,0.00001398,-0.00000033,0.00000087,0.
 00001237,0.00000186,-0.00000124,0.00000243,-0.00000299,-0.00000222,0.0
 0002440,-0.00018969,-0.00151572,-0.00004664,0.00003394,-0.00000605,0.0
 0011090,-0.00016284,0.00006580,-0.00005638,0.00009221,0.00008414,0.000
 01074,-0.00000482,-0.00000353,0.00001229,-0.00005297,0.00002341,-0.000
 65978,0.00144916,-0.00008539,0.00004921,-0.00008404,0.00015578,0.00284
 534,0.01029211,0.00802565,0.00037377,-0.00073756,-0.00001009,0.0000527
 6,-0.00007811,-0.00005000,-0.00001873,-0.00004451,0.00004549,-0.026470
 15,-0.12457644,-0.14181604,-0.00522989,-0.02459716,-0.01928599,0.02928
 514,0.13572120,0.15360671,0.00001704,-0.00000343,-0.00002309,-0.000002
 20,0.00000160,0.00000215,-0.00000760,0.00001269,-0.00000740,0.00000821
 ,-0.00000541,0.00000344,-0.00001519,-0.00001791,0.00005380,-0.00005126
 ,0.00005075,-0.00003198,0.00000052,-0.00000070,-0.00001759,0.00002744,
 -0.00000024,-0.00000630,0.00000371,0.00000698,0.00000448,0.00076290,0.
 00025328,0.00005845,0.00025907,-0.00033371,0.00010819,-0.00005200,0.00
 010093,-0.00002462,-0.00004382,0.00001110,0.00002423,0.00003100,-0.000
 01205,0.00000893,0.00000960,-0.00001237,-0.00002157,0.00274849,-0.0020
 9495,0.00095716,0.00009966,-0.00001745,-0.00004292,-0.02096878,-0.0055
 5917,0.00070617,-0.00106433,0.00314226,-0.00119699,-0.00003762,0.00004
 681,0.00000013,-0.00000271,-0.00001310,-0.00001280,-0.30460007,-0.0636
 6171,0.00584545,-0.00497094,-0.00106436,0.00001223,-0.00224547,-0.0005
 8107,-0.00008625,0.33008045,0.00000320,0.00000749,-0.00004665,0.000003
 63,-0.00000655,0.00000055,-0.00000599,0.00001604,-0.00000754,-0.000004
 90,0.00000228,-0.00000106,-0.00009965,0.00005263,0.00003306,0.00000394
 ,-0.00002823,0.00001864,-0.00000501,0.00000848,0.00002808,-0.00001891,
 0.00001459,-0.00001359,-0.00000108,-0.00002074,-0.00000229,0.00015090,
 -0.00049229,0.00001003,-0.00050538,-0.00005434,-0.00000249,-0.00001351
 ,-0.00002354,0.00001443,0.00001542,0.00002024,0.00000836,-0.00000665,-
 0.00000432,-0.00000322,-0.00000482,-0.00000327,-0.00000090,-0.00090414
 ,0.00267333,-0.00130868,0.00000373,0.00000889,-0.00002287,0.02913886,0
 .00813774,-0.00117227,0.00240539,-0.00367521,0.00204565,-0.00001391,0.
 00001141,0.00002617,0.00000085,-0.00000582,0.00000114,-0.06814250,-0.0
 6666739,0.00141072,-0.00784091,-0.00304533,-0.00101573,-0.02393141,-0.
 00497240,0.00266321,0.06977779,0.06804842,0.00001027,0.00000757,-0.000
 00862,-0.00000041,-0.00000398,-0.00000236,-0.00000126,0.00000431,-0.00
 000079,0.00000697,-0.00000585,0.00000125,-0.00003971,-0.00001459,0.000
 00853,-0.00001876,0.00004788,-0.00001344,0.00000186,0.00001266,0.00000
 314,0.00000823,-0.00000848,-0.00000031,0.00000382,-0.00001609,-0.00000
 239,0.00002178,0.00009468,-0.00020836,0.00018457,0.00002325,-0.0000036
 0,0.00006735,-0.00000517,0.00000358,-0.00003845,0.00003423,0.00000952,
 0.00001765,-0.00001014,0.00000176,0.00000385,-0.00001663,-0.00000192,0
 .00045295,-0.00117143,-0.00041421,0.00008840,-0.00000848,-0.00000671,-
 0.01020852,-0.00341983,-0.00037104,-0.00089111,0.00202384,0.00145197,-
 0.00002190,0.00003666,-0.00003118,-0.00000732,-0.00002079,0.00000055,0
 .00724408,0.00175749,-0.05073905,0.02979031,0.00674269,0.00178901,-0.0
 2038343,-0.00340837,0.00086100,-0.00629633,-0.00265236,0.04769582,0.00
 049926,0.00035465,0.00084853,-0.00020769,0.00033440,0.00005161,0.00002
 695,-0.00001605,-0.00002622,-0.00006352,-0.00001030,0.00001054,-0.0022
 8655,0.00205673,-0.00061911,-0.00033637,-0.00002473,-0.00007111,0.0000
 6566,-0.00003699,0.00000061,0.00003521,0.00001228,0.00000110,0.0000750
 1,0.00000687,0.00002166,0.00000849,0.00017822,-0.00014860,0.00000346,-
 0.00003549,0.00003230,0.00002299,-0.00001540,0.00010062,0.01458710,0.0
 0483539,0.00595625,0.00075141,-0.00203507,-0.00058723,-0.00015668,0.00
 043863,-0.00019338,0.00001650,-0.00005970,-0.00004790,-0.01709383,0.01
 700533,0.01050571,-0.00009708,-0.00000532,-0.00007191,0.00004024,-0.00
 000009,0.00001129,-0.10414114,0.05632307,0.00512577,0.00563268,-0.0000
 9571,0.00183730,0.00001392,-0.00002941,-0.00002903,0.00002015,-0.00000
 892,-0.00000568,-0.00004115,-0.00002350,0.00001297,0.00002801,0.000018
 49,0.00003402,0.53144330,0.00014168,0.00011463,0.00024366,-0.00007421,
 0.00009375,0.00000111,0.00001286,0.00000448,-0.00000338,-0.00002772,0.
 00000488,0.00001424,-0.00064980,0.00078203,-0.00039732,-0.00008427,-0.
 00002739,-0.00000175,0.00003088,0.00001122,-0.00008083,0.00001524,-0.0
 0000861,0.00000761,-0.00000652,-0.00002035,-0.00000873,-0.00006777,0.0
 0008701,-0.00005481,0.00000062,-0.00001846,0.00003292,0.00000642,-0.00
 002364,-0.00000075,0.00456062,0.00542968,0.00416509,0.00068024,-0.0011
 8650,-0.00061212,0.00002531,0.00015320,-0.00026433,0.00003920,-0.00003
 674,-0.00012258,0.00927441,-0.01006303,-0.01641064,-0.00010230,-0.0000
 3412,0.00000124,0.00000593,0.00001096,0.00002611,0.05751983,-0.2000742
 2,-0.00182802,0.01025423,-0.01310095,-0.00317457,0.00004702,0.00007735
 ,-0.00003056,0.00001173,-0.00002646,-0.00004409,-0.00004078,-0.0001257
 2,0.00006481,0.00002057,0.00000157,0.00003039,0.02023048,0.51779936,-0
 .00017620,-0.00008659,-0.00033415,0.00001248,-0.00016672,-0.00004235,0
 .00000422,0.00000752,0.00001549,-0.00003234,0.00003268,0.00003645,0.00
 003346,-0.00005965,0.00071615,0.00003664,0.00009205,-0.00027978,0.0000
 6705,0.00002367,0.00004492,-0.00001247,-0.00007139,0.00005380,-0.00009
 365,-0.00010171,0.00001676,-0.00002031,-0.00000346,0.00028139,-0.00003
 450,0.00001962,0.00001491,-0.00002926,0.00000580,-0.00005672,0.0056477
 4,0.00416737,0.00047346,0.00117537,-0.00204398,-0.00021457,0.00027990,
 -0.00118356,0.00058423,0.00004356,0.00020472,-0.00022509,0.01864632,-0
 .03613888,-0.01034958,0.00003936,-0.00033208,0.00002026,0.00000571,0.0
 0002626,0.00001870,0.00386352,0.00166735,-0.08679481,-0.00959381,0.021
 86517,0.00550777,-0.00004176,-0.00005515,-0.00003851,-0.00002738,0.000
 05942,0.00002144,0.00002857,0.00014553,-0.00007562,-0.00001885,-0.0000
 0808,-0.00001121,-0.00853760,-0.02826103,0.58770589,0.00000312,-0.0000
 0967,-0.00002010,0.00001112,0.00000260,0.00000589,-0.00000307,-0.00000
 449,0.00000213,0.00001174,-0.00000719,-0.00000501,0.00013842,-0.000219
 23,-0.00005881,0.00001113,0.00002493,0.00003695,-0.00001808,0.00000676
 ,0.00000586,-0.00000628,0.00000305,-0.00000389,0.00001327,0.00000611,0
 .00000031,0.00001233,0.00001574,-0.00001795,0.00000893,-0.00000053,-0.
 00000475,0.00000105,-0.00000341,0.00001002,-0.00200869,-0.00066014,-0.
 00050798,-0.00024751,0.00045801,0.00007562,-0.00001984,0.00008365,-0.0
 0002062,-0.00000379,-0.00002914,0.00003040,-0.00015814,0.00258879,0.00
 034341,0.00000605,0.00003882,0.00000479,0.00000010,-0.00000259,-0.0000
 0039,0.00709012,0.00859529,0.01622651,-0.00002414,-0.00084574,-0.00054
 346,-0.00001309,-0.00000400,-0.00000089,0.00000900,-0.00000348,-0.0000
 0261,0.00000153,-0.00000970,0.00000314,0.00000554,0.00000108,0.0000088
 5,-0.08649234,-0.05083649,-0.08328233,0.09432312,-0.00005126,0.0000071
 5,-0.00007990,0.00000298,-0.00005505,-0.00002266,-0.00000013,0.0000061
 7,0.00000700,-0.00000410,0.00000859,0.00001018,-0.00011676,0.00022549,
 0.00036075,-0.00000873,-0.00000328,-0.00012747,0.00005273,-0.00000243,
 0.00003918,0.00000745,0.00000247,0.00001528,-0.00003956,-0.00004953,-0
 .00001822,-0.00003123,-0.00004205,0.00009256,-0.00001252,0.00001002,0.
 00000943,-0.00001059,0.00000204,-0.00004654,0.00270550,0.00150417,0.00
 019868,0.00042407,-0.00086027,-0.00013290,-0.00000272,-0.00022065,0.00
 012824,0.00002660,0.00008043,-0.00013182,-0.00020484,-0.00394402,0.000
 35785,0.00000168,-0.00014122,0.00000891,-0.00000142,0.00001634,0.00001
 343,-0.01234593,-0.01202647,-0.02527292,0.00073335,0.00081040,0.001433
 23,0.00000619,-0.00000699,-0.00000437,-0.00001329,0.00001910,0.0000023
 9,0.00000571,0.00003692,-0.00000398,-0.00001147,-0.00000591,-0.0000102
 3,-0.05198711,-0.11000175,-0.09607120,0.05423919,0.11618523,-0.0000110
 8,0.00000873,0.00000524,-0.00000450,-0.00000855,-0.00000644,0.00000134
 ,0.00000180,0.00000078,0.00000813,0.00000013,-0.00000086,-0.00003444,0
 .00012795,0.00001318,-0.00001648,0.00001659,-0.00001944,0.00001385,0.0
 0000366,0.00000609,0.00000466,-0.00000043,0.00000577,-0.00000109,-0.00
 001375,-0.00000741,-0.00005668,0.00001416,0.00000855,0.00002161,0.0000
 0163,-0.00000040,0.00000514,-0.00000553,-0.00001146,0.00070974,0.00000
 593,0.00042576,0.00004291,-0.00010074,-0.00001444,0.00007605,-0.000105
 19,0.00003659,0.00006382,-0.00000052,-0.00006687,-0.00069358,-0.002030
 44,0.00046404,-0.00009948,-0.00002679,0.00002333,0.00002862,0.00000048
 ,0.00000990,0.00143155,-0.00220550,-0.00409811,0.00043583,-0.00050100,
 0.00017672,0.00001292,0.00002550,-0.00002729,0.00000976,-0.00000774,-0
 .00002774,-0.00003191,-0.00004227,0.00001780,0.00002157,0.00000863,0.0
 0002950,-0.08447144,-0.09443103,-0.20488197,0.09078294,0.10868563,0.21
 984999,0.00013779,0.00006115,0.00017918,-0.00004097,0.00008223,0.00002
 077,-0.00000263,-0.00000685,-0.00000985,-0.00000022,-0.00001174,-0.000
 00674,-0.00035478,0.00013426,-0.00034745,-0.00007250,0.00002384,0.0000
 6953,-0.00001646,-0.00000964,-0.00000308,-0.00000390,0.00002067,-0.000
 01924,0.00004263,0.00001225,0.00000519,0.00001919,0.00005140,-0.000046
 96,0.00001517,-0.00000538,-0.00000682,0.00000622,0.00000147,0.00004694
 ,0.00118579,0.00048740,0.00089395,-0.00000739,-0.00006523,-0.00007697,
 -0.00003152,0.00016893,-0.00009852,0.00001150,-0.00002982,0.00004882,-
 0.00165134,0.00162600,-0.00146352,-0.00002459,0.00003580,-0.00001666,0
 .00002001,-0.00000768,-0.00000824,-0.01264436,-0.00231928,0.00505228,0
 .00073422,0.00079622,-0.00021440,-0.00001439,-0.00001807,-0.00000668,0
 .00000856,-0.00000346,0.00000623,-0.00000422,0.00000395,-0.00000461,0.
 00001252,0.00000516,0.00001011,-0.29042690,-0.03812393,0.05400919,-0.0
 1321213,-0.00247093,0.00255923,0.31594614,-0.00021434,-0.00010787,-0.0
 0031167,0.00007094,-0.00014033,-0.00002701,-0.00000121,0.00000674,0.00
 001568,0.00001093,0.00000898,0.00000422,0.00070013,-0.00046357,0.00046
 669,0.00011671,-0.00001714,-0.00003875,0.00001216,0.00003556,-0.000030
 29,0.00000376,-0.00003575,0.00002087,-0.00006607,-0.00001177,-0.000001
 34,-0.00004312,-0.00008464,0.00009936,-0.00000640,0.00001281,-0.000002
 26,-0.00000874,0.00000998,-0.00006244,-0.00257670,-0.00115953,-0.00203
 883,-0.00004701,0.00022268,0.00016146,0.00005347,-0.00017342,0.0001400
 7,0.00002527,0.00005746,-0.00005587,0.00258290,-0.00279723,0.00063706,
 -0.00000465,-0.00006743,0.00002147,0.00000195,0.00000088,0.00000245,0.
 03132523,0.00725387,-0.00870577,-0.00178476,0.00027528,0.00040192,0.00
 000405,-0.00000595,-0.00000881,-0.00000851,0.00001271,0.00000275,-0.00
 001062,0.00002963,-0.00001225,-0.00000474,0.00000763,-0.00000057,-0.03
 613427,-0.05366241,0.01213902,-0.01600574,-0.00255604,0.00415703,0.039
 88453,0.05608997,-0.00005351,-0.00004385,-0.00004746,0.00001263,-0.000
 02265,-0.00001162,0.00000023,0.00000985,-0.00000490,-0.00001312,0.0000
 1005,-0.00000105,0.00018635,-0.00006385,0.00006585,0.00004683,-0.00007
 061,0.00003979,-0.00002611,0.00000652,-0.00003837,-0.00000111,0.000004
 64,-0.00000314,-0.00002071,0.00002258,0.00000179,0.00002380,-0.0000228
 4,-0.00001855,-0.00002280,-0.00000366,0.00000515,-0.00000035,-0.000002
 89,-0.00000640,-0.00075333,-0.00090173,-0.00019619,-0.00010427,0.00020
 281,-0.00000925,0.00001907,-0.00008260,-0.00001854,-0.00005541,-0.0000
 0297,0.00004368,0.00148758,-0.00106501,0.00079219,0.00004711,0.0000470
 4,-0.00001849,-0.00003346,-0.00000026,-0.00000527,0.00566679,-0.000981
 08,-0.00360156,-0.00005395,-0.00018817,-0.00000784,0.00002667,0.000024
 51,0.00003063,-0.00001214,-0.00001024,0.00000126,0.00001668,-0.0000195
 5,0.00001154,-0.00001841,-0.00001046,-0.00002863,0.05405611,0.01293449
 ,-0.05795746,-0.02600478,-0.00345848,0.00588820,-0.06055884,-0.0086491
 6,0.05895315,-0.00002115,-0.00002006,-0.00002281,0.00000429,-0.0000125
 8,-0.00000310,0.00000014,-0.00000170,-0.00000130,-0.00000667,0.0000061
 6,0.00000016,0.00003842,-0.00006469,0.00006121,0.00002754,-0.00002046,
 -0.00000680,-0.00000473,-0.00000759,0.00000145,-0.00000982,0.00000376,
 0.00000119,-0.00000471,0.00000114,0.00000194,0.00003207,0.00001672,0.0
 0001643,-0.00002083,0.00000027,0.00000407,-0.00000285,-0.00000757,0.00
 000493,-0.00031824,0.00012787,0.00006398,-0.00001733,0.00004268,-0.000
 00581,-0.00000330,-0.00019446,0.00021334,-0.00006022,0.00002379,0.0000
 1522,0.00041852,-0.00191747,-0.00088497,0.00008470,0.00000248,0.000000
 86,-0.00004637,0.00001215,0.00000164,0.00097333,0.00942652,-0.01510814
 ,0.00024132,0.00310794,0.00125961,0.00000724,0.00003618,0.00004096,-0.
 00002306,-0.00000147,0.00000348,0.00005172,-0.00001103,0.00000076,-0.0
 0003219,-0.00002967,-0.00004785,-0.05192708,-0.01286347,0.01800736,0.0
 0056052,0.00910715,-0.01080897,0.00036856,-0.01787513,0.02614245,0.049
 69018,-0.00000965,0.00000024,-0.00001274,0.00000540,-0.00000717,-0.000
 00272,-0.00000209,0.00001414,-0.00000254,0.00000126,-0.00000012,0.0000
 0082,0.00001818,0.00002934,0.00003701,0.00001973,-0.00006714,0.0000094
 0,-0.00001737,-0.00002998,0.00001718,0.00000214,0.00004593,-0.00001873
 ,-0.00000875,0.00000566,-0.00001947,0.00003275,-0.00010856,0.00001561,
 -0.00002342,0.00000853,-0.00000950,-0.00001291,0.00002519,-0.00002211,
 0.00013307,0.00003219,-0.00062598,0.00003155,-0.00001184,-0.00005731,-
 0.00013636,0.00047173,-0.00021110,-0.00003393,0.00005053,0.00002276,-0
 .00228356,0.00406291,0.00022846,0.00009109,-0.00002948,-0.00004642,-0.
 00001301,-0.00000042,-0.00001876,-0.00324856,-0.01879507,0.02799354,0.
 00339683,-0.00406698,-0.00129483,-0.00001104,-0.00003441,0.00004301,-0
 .00002000,0.00001902,0.00003342,0.00002918,0.00010027,-0.00003651,-0.0
 0003090,-0.00000539,-0.00004269,-0.01127644,-0.13615977,0.12412731,0.0
 0257751,0.01100112,-0.01357836,-0.00032325,-0.00274114,0.00233757,0.01
 111253,0.14619069,0.00001981,0.00000806,0.00001940,-0.00000317,0.00001
 651,0.00000370,-0.00000006,-0.00000120,0.00000073,-0.00000286,-0.00000
 112,-0.00000077,-0.00004473,0.00000788,-0.00004581,-0.00000561,0.00001
 084,0.00000279,-0.00000848,-0.00000115,-0.00001067,-0.00000178,-0.0000
 1126,0.00000377,0.00000620,0.00000781,0.00000881,0.00001347,0.00001565
 ,-0.00003359,-0.00000149,-0.00000548,0.00000116,0.00000161,-0.00000033
 ,0.00001183,0.00006561,-0.00054429,0.00031948,-0.00004695,0.00009228,-
 0.00001877,0.00015245,-0.00004236,-0.00029900,-0.00002037,-0.00001928,
 0.00001882,-0.00038059,-0.00090394,0.00104458,0.00004165,0.00001795,-0
 .00003062,-0.00001048,-0.00000041,-0.00000258,-0.00087249,-0.00302867,
 0.00469098,0.00093157,-0.00065244,0.00057200,-0.00002487,-0.00004003,0
 .00001338,0.00000317,0.00001354,0.00001267,0.00001414,0.00003044,-0.00
 000006,-0.00000125,-0.00000049,-0.00001183,0.01620283,0.12820489,-0.23
 424981,0.00293678,0.01401796,-0.01779901,-0.00001284,0.00167496,-0.003
 85853,-0.01895130,-0.13886633,0.24963694\\0.00000052,0.00000051,0.0000
 0313,0.00000067,0.00000037,-0.00000074,-0.00000042,-0.00000040,0.00000
 038,0.00000085,0.00000033,0.00000050,-0.00000025,-0.00000203,-0.000006
 48,0.00000055,-0.00000024,-0.00000086,-0.00000103,-0.00000075,-0.00000
 162,-0.00000146,-0.00000113,-0.00000109,0.00000101,-0.00000017,-0.0000
 0265,0.00000280,-0.00000206,0.00000258,0.00000220,0.00000121,0.0000000
 8,0.00000221,0.00000152,0.00000007,-0.00000066,0.00000169,-0.00000169,
 -0.00000009,-0.00000109,0.00000036,-0.00000293,-0.00000084,-0.00000040
 ,0.00000177,0.00000485,-0.00000316,0.00000109,-0.00000454,0.00000295,0
 .00000462,-0.00000022,0.00000195,0.00000294,0.00000063,0.00000314,-0.0
 0000314,0.00000344,0.00000449,-0.00000267,-0.00000090,-0.00000014,0.00
 000233,0.00000155,-0.00000572,0.00000172,0.00000067,0.00000237,0.00000
 024,0.00000050,0.00000324,-0.00000013,0.00000338,0.00000059,-0.0000002
 1,0.00000001,-0.00000086,-0.00000439,-0.00000319,0.00000097,-0.0000051
 6,-0.00000166,-0.00000121,-0.00000298,-0.00000145,-0.00000016\\\@
 The archive entry for this job was punched.


 NECESSARY EVIL: ONE WE LIKE TOO MUCH TO RELINQUISH.
 Job cpu time:       0 days  0 hours 49 minutes 24.1 seconds.
 Elapsed time:       0 days  0 hours  6 minutes 10.8 seconds.
 File lengths (MBytes):  RWF=    216 Int=      0 D2E=      0 Chk=     12 Scr=      1
 Normal termination of Gaussian 16 at Wed Sep 29 05:43:53 2021.
