 Entering Gaussian System, Link 0=/home/rong/g16/g16
 Input=/home/rong/g16/learning/CH3CH2CH2NMeCHCH3.gjf
 Output=/home/rong/g16/learning/CH3CH2CH2NMeCHCH3.log
 Initial command:
 /home/rong/g16/l1.exe "/tmp/Gau-268712.inp" -scrdir="/tmp/"
 Entering Link 1 = /home/rong/g16/l1.exe PID=    268714.
  
 Copyright (c) 1988-2019, Gaussian, Inc.  All Rights Reserved.
  
 This is part of the Gaussian(R) 16 program.  It is based on
 the Gaussian(R) 09 system (copyright 2009, Gaussian, Inc.),
 the Gaussian(R) 03 system (copyright 2003, Gaussian, Inc.),
 the Gaussian(R) 98 system (copyright 1998, Gaussian, Inc.),
 the Gaussian(R) 94 system (copyright 1995, Gaussian, Inc.),
 the Gaussian 92(TM) system (copyright 1992, Gaussian, Inc.),
 the Gaussian 90(TM) system (copyright 1990, Gaussian, Inc.),
 the Gaussian 88(TM) system (copyright 1988, Gaussian, Inc.),
 the Gaussian 86(TM) system (copyright 1986, Carnegie Mellon
 University), and the Gaussian 82(TM) system (copyright 1983,
 Carnegie Mellon University). Gaussian is a federally registered
 trademark of Gaussian, Inc.
  
 This software contains proprietary and confidential information,
 including trade secrets, belonging to Gaussian, Inc.
  
 This software is provided under written license and may be
 used, copied, transmitted, or stored only in accord with that
 written license.
  
 The following legend is applicable only to US Government
 contracts under FAR:
  
                    RESTRICTED RIGHTS LEGEND
  
 Use, reproduction and disclosure by the US Government is
 subject to restrictions as set forth in subparagraphs (a)
 and (c) of the Commercial Computer Software - Restricted
 Rights clause in FAR 52.227-19.
  
 Gaussian, Inc.
 340 Quinnipiac St., Bldg. 40, Wallingford CT 06492
  
  
 ---------------------------------------------------------------
 Warning -- This program may not be used in any manner that
 competes with the business of Gaussian, Inc. or will provide
 assistance to any competitor of Gaussian, Inc.  The licensee
 of this program is prohibited from giving any competitor of
 Gaussian, Inc. access to this program.  By using this program,
 the user acknowledges that Gaussian, Inc. is engaged in the
 business of creating and licensing software in the field of
 computational chemistry and represents and warrants to the
 licensee that it is not a competitor of Gaussian, Inc. and that
 it will not use this program in any manner prohibited above.
 ---------------------------------------------------------------
  

 Cite this work as:
 Gaussian 16, Revision C.01,
 M. J. Frisch, G. W. Trucks, H. B. Schlegel, G. E. Scuseria, 
 M. A. Robb, J. R. Cheeseman, G. Scalmani, V. Barone, 
 G. A. Petersson, H. Nakatsuji, X. Li, M. Caricato, A. V. Marenich, 
 J. Bloino, B. G. Janesko, R. Gomperts, B. Mennucci, H. P. Hratchian, 
 J. V. Ortiz, A. F. Izmaylov, J. L. Sonnenberg, D. Williams-Young, 
 F. Ding, F. Lipparini, F. Egidi, J. Goings, B. Peng, A. Petrone, 
 T. Henderson, D. Ranasinghe, V. G. Zakrzewski, J. Gao, N. Rega, 
 G. Zheng, W. Liang, M. Hada, M. Ehara, K. Toyota, R. Fukuda, 
 J. Hasegawa, M. Ishida, T. Nakajima, Y. Honda, O. Kitao, H. Nakai, 
 T. Vreven, K. Throssell, J. A. Montgomery, Jr., J. E. Peralta, 
 F. Ogliaro, M. J. Bearpark, J. J. Heyd, E. N. Brothers, K. N. Kudin, 
 V. N. Staroverov, T. A. Keith, R. Kobayashi, J. Normand, 
 K. Raghavachari, A. P. Rendell, J. C. Burant, S. S. Iyengar, 
 J. Tomasi, M. Cossi, J. M. Millam, M. Klene, C. Adamo, R. Cammi, 
 J. W. Ochterski, R. L. Martin, K. Morokuma, O. Farkas, 
 J. B. Foresman, and D. J. Fox, Gaussian, Inc., Wallingford CT, 2019.
 
 ******************************************
 Gaussian 16:  ES64L-G16RevC.01  3-Jul-2019
                25-Oct-2021 
 ******************************************
 %mem=30GB
 %chk=/home/rong/g16/learning/CH3CH2CH2NMeCHCH3.chk
 %nprocshared=16
 Will use up to   16 processors via shared memory.
 ----------------------------------------------------
 # opt freq b3lyp/6-31g(d) scrf=(smd,solvent=toluene)
 ----------------------------------------------------
 1/18=20,19=15,26=3,38=1/1,3;
 2/9=110,12=2,17=6,18=5,40=1/2;
 3/5=1,6=6,7=1,11=2,25=1,30=1,70=32201,71=1,72=13,74=-5/1,2,3;
 4//1;
 5/5=2,38=5,53=13/2;
 6/7=2,8=2,9=2,10=2,28=1/1;
 7//1,2,3,16;
 1/18=20,19=15,26=3/3(2);
 2/9=110/2;
 99//99;
 2/9=110/2;
 3/5=1,6=6,7=1,11=2,25=1,30=1,70=32205,71=1,72=13,74=-5/1,2,3;
 4/5=5,16=3,69=1/1;
 5/5=2,38=5,53=13/2;
 7//1,2,3,16;
 1/18=20,19=15,26=3/3(-5);
 2/9=110/2;
 6/7=2,8=2,9=2,10=2,19=2,28=1/1;
 99/9=1/99;
 ------------------
 CH3CH2CH2NMeCH2CH3
 ------------------
 Symbolic Z-matrix:
 Charge =  0 Multiplicity = 1
 C                    -2.77941   1.51471   0. 
 H                    -2.42274   2.0191    0.87365 
 H                    -2.42274   2.0191   -0.87365 
 H                    -3.84941   1.51472   0. 
 C                    -2.2661    0.06277   0. 
 C                    -0.7261    0.06276  0. 
 H                    -0.36944  -0.94605   0.00196 
 H                    -0.36943   0.56546  -0.87463 
 H                    -0.36942   0.56885   0.87267 
 C                    -2.77944  -0.66318   1.25741 
 H                    -3.84944  -0.66298   1.25752 
 H                    -2.42259  -0.15891   2.13106 
 C                    -2.77944  -0.66318  -1.2574 
 H                    -3.84944  -0.66332  -1.25732 
 H                    -2.42291  -0.15869  -2.13106 
 N                    -2.28969  -2.0492    1.25726 
 N                    -2.28927  -2.04905  -1.25752 
 C                    -1.03388  -2.12503   2.01758 
 H                    -1.10042  -2.91292   2.73848 
 H                    -0.22285  -2.32184   1.34796 
 H                    -0.86428  -1.19552   2.51973 
 C                    -1.26356  -2.20548  -2.29884 
 H                    -0.31252  -2.37757  -1.83969 
 H                    -1.51366  -3.03725  -2.92374 
 H                    -1.21789  -1.31547  -2.89104 
 C                    -3.40701  -2.9643   -1.5293 
 H                    -3.08845  -3.97336  -1.37048 
 H                    -4.2203   -2.73931  -0.87139 
 C                    -3.86596  -2.79468  -2.98951 
 H                    -3.25752  -3.40119  -3.62735 
 H                    -4.8885   -3.09675  -3.07937 
 H                    -3.77074  -1.76826  -3.27636 
 C                    -3.29355  -2.92351   1.88076 
 H                    -3.04711  -3.94608   1.68452 
 H                    -4.25882  -2.70489   1.47411 
 C                    -3.31064  -2.68236   3.40166 
 H                    -4.22286  -3.06158   3.81269 
 H                    -2.48038  -3.18523   3.85187 
 H                    -3.24055  -1.63271   3.59717 
 

 GradGradGradGradGradGradGradGradGradGradGradGradGradGradGradGradGradGrad
 Berny optimization.
 Initialization pass.
                           ----------------------------
                           !    Initial Parameters    !
                           ! (Angstroms and Degrees)  !
 --------------------------                            --------------------------
 ! Name  Definition              Value          Derivative Info.                !
 --------------------------------------------------------------------------------
 ! R1    R(1,2)                  1.07           estimate D2E/DX2                !
 ! R2    R(1,3)                  1.07           estimate D2E/DX2                !
 ! R3    R(1,4)                  1.07           estimate D2E/DX2                !
 ! R4    R(1,5)                  1.54           estimate D2E/DX2                !
 ! R5    R(5,6)                  1.54           estimate D2E/DX2                !
 ! R6    R(5,10)                 1.54           estimate D2E/DX2                !
 ! R7    R(5,13)                 1.54           estimate D2E/DX2                !
 ! R8    R(6,7)                  1.07           estimate D2E/DX2                !
 ! R9    R(6,8)                  1.07           estimate D2E/DX2                !
 ! R10   R(6,9)                  1.07           estimate D2E/DX2                !
 ! R11   R(10,11)                1.07           estimate D2E/DX2                !
 ! R12   R(10,12)                1.07           estimate D2E/DX2                !
 ! R13   R(10,16)                1.47           estimate D2E/DX2                !
 ! R14   R(13,14)                1.07           estimate D2E/DX2                !
 ! R15   R(13,15)                1.07           estimate D2E/DX2                !
 ! R16   R(13,17)                1.47           estimate D2E/DX2                !
 ! R17   R(16,18)                1.47           estimate D2E/DX2                !
 ! R18   R(16,33)                1.47           estimate D2E/DX2                !
 ! R19   R(17,22)                1.47           estimate D2E/DX2                !
 ! R20   R(17,26)                1.47           estimate D2E/DX2                !
 ! R21   R(18,19)                1.07           estimate D2E/DX2                !
 ! R22   R(18,20)                1.07           estimate D2E/DX2                !
 ! R23   R(18,21)                1.07           estimate D2E/DX2                !
 ! R24   R(22,23)                1.07           estimate D2E/DX2                !
 ! R25   R(22,24)                1.07           estimate D2E/DX2                !
 ! R26   R(22,25)                1.07           estimate D2E/DX2                !
 ! R27   R(26,27)                1.07           estimate D2E/DX2                !
 ! R28   R(26,28)                1.07           estimate D2E/DX2                !
 ! R29   R(26,29)                1.54           estimate D2E/DX2                !
 ! R30   R(29,30)                1.07           estimate D2E/DX2                !
 ! R31   R(29,31)                1.07           estimate D2E/DX2                !
 ! R32   R(29,32)                1.07           estimate D2E/DX2                !
 ! R33   R(33,34)                1.07           estimate D2E/DX2                !
 ! R34   R(33,35)                1.07           estimate D2E/DX2                !
 ! R35   R(33,36)                1.54           estimate D2E/DX2                !
 ! R36   R(36,37)                1.07           estimate D2E/DX2                !
 ! R37   R(36,38)                1.07           estimate D2E/DX2                !
 ! R38   R(36,39)                1.07           estimate D2E/DX2                !
 ! A1    A(2,1,3)              109.4713         estimate D2E/DX2                !
 ! A2    A(2,1,4)              109.4712         estimate D2E/DX2                !
 ! A3    A(2,1,5)              109.4712         estimate D2E/DX2                !
 ! A4    A(3,1,4)              109.4712         estimate D2E/DX2                !
 ! A5    A(3,1,5)              109.4712         estimate D2E/DX2                !
 ! A6    A(4,1,5)              109.4712         estimate D2E/DX2                !
 ! A7    A(1,5,6)              109.4712         estimate D2E/DX2                !
 ! A8    A(1,5,10)             109.4712         estimate D2E/DX2                !
 ! A9    A(1,5,13)             109.4712         estimate D2E/DX2                !
 ! A10   A(6,5,10)             109.4713         estimate D2E/DX2                !
 ! A11   A(6,5,13)             109.4712         estimate D2E/DX2                !
 ! A12   A(10,5,13)            109.4712         estimate D2E/DX2                !
 ! A13   A(5,6,7)              109.4712         estimate D2E/DX2                !
 ! A14   A(5,6,8)              109.4712         estimate D2E/DX2                !
 ! A15   A(5,6,9)              109.4712         estimate D2E/DX2                !
 ! A16   A(7,6,8)              109.4713         estimate D2E/DX2                !
 ! A17   A(7,6,9)              109.4712         estimate D2E/DX2                !
 ! A18   A(8,6,9)              109.4712         estimate D2E/DX2                !
 ! A19   A(5,10,11)            109.4712         estimate D2E/DX2                !
 ! A20   A(5,10,12)            109.4712         estimate D2E/DX2                !
 ! A21   A(5,10,16)            109.4712         estimate D2E/DX2                !
 ! A22   A(11,10,12)           109.4712         estimate D2E/DX2                !
 ! A23   A(11,10,16)           109.4713         estimate D2E/DX2                !
 ! A24   A(12,10,16)           109.4712         estimate D2E/DX2                !
 ! A25   A(5,13,14)            109.4712         estimate D2E/DX2                !
 ! A26   A(5,13,15)            109.4712         estimate D2E/DX2                !
 ! A27   A(5,13,17)            109.4712         estimate D2E/DX2                !
 ! A28   A(14,13,15)           109.4712         estimate D2E/DX2                !
 ! A29   A(14,13,17)           109.4713         estimate D2E/DX2                !
 ! A30   A(15,13,17)           109.4712         estimate D2E/DX2                !
 ! A31   A(10,16,18)           109.463          estimate D2E/DX2                !
 ! A32   A(10,16,33)           109.4652         estimate D2E/DX2                !
 ! A33   A(18,16,33)           109.4713         estimate D2E/DX2                !
 ! A34   A(13,17,22)           109.4536         estimate D2E/DX2                !
 ! A35   A(13,17,26)           109.4787         estimate D2E/DX2                !
 ! A36   A(22,17,26)           109.4713         estimate D2E/DX2                !
 ! A37   A(16,18,19)           109.4712         estimate D2E/DX2                !
 ! A38   A(16,18,20)           109.4712         estimate D2E/DX2                !
 ! A39   A(16,18,21)           109.4712         estimate D2E/DX2                !
 ! A40   A(19,18,20)           109.4713         estimate D2E/DX2                !
 ! A41   A(19,18,21)           109.4712         estimate D2E/DX2                !
 ! A42   A(20,18,21)           109.4712         estimate D2E/DX2                !
 ! A43   A(17,22,23)           109.4712         estimate D2E/DX2                !
 ! A44   A(17,22,24)           109.4712         estimate D2E/DX2                !
 ! A45   A(17,22,25)           109.4712         estimate D2E/DX2                !
 ! A46   A(23,22,24)           109.4713         estimate D2E/DX2                !
 ! A47   A(23,22,25)           109.4712         estimate D2E/DX2                !
 ! A48   A(24,22,25)           109.4712         estimate D2E/DX2                !
 ! A49   A(17,26,27)           109.4712         estimate D2E/DX2                !
 ! A50   A(17,26,28)           109.4712         estimate D2E/DX2                !
 ! A51   A(17,26,29)           109.4712         estimate D2E/DX2                !
 ! A52   A(27,26,28)           109.4712         estimate D2E/DX2                !
 ! A53   A(27,26,29)           109.4713         estimate D2E/DX2                !
 ! A54   A(28,26,29)           109.4712         estimate D2E/DX2                !
 ! A55   A(26,29,30)           109.4712         estimate D2E/DX2                !
 ! A56   A(26,29,31)           109.4712         estimate D2E/DX2                !
 ! A57   A(26,29,32)           109.4712         estimate D2E/DX2                !
 ! A58   A(30,29,31)           109.4713         estimate D2E/DX2                !
 ! A59   A(30,29,32)           109.4712         estimate D2E/DX2                !
 ! A60   A(31,29,32)           109.4712         estimate D2E/DX2                !
 ! A61   A(16,33,34)           109.4712         estimate D2E/DX2                !
 ! A62   A(16,33,35)           109.4712         estimate D2E/DX2                !
 ! A63   A(16,33,36)           109.4712         estimate D2E/DX2                !
 ! A64   A(34,33,35)           109.4712         estimate D2E/DX2                !
 ! A65   A(34,33,36)           109.4713         estimate D2E/DX2                !
 ! A66   A(35,33,36)           109.4712         estimate D2E/DX2                !
 ! A67   A(33,36,37)           109.4712         estimate D2E/DX2                !
 ! A68   A(33,36,38)           109.4712         estimate D2E/DX2                !
 ! A69   A(33,36,39)           109.4712         estimate D2E/DX2                !
 ! A70   A(37,36,38)           109.4713         estimate D2E/DX2                !
 ! A71   A(37,36,39)           109.4712         estimate D2E/DX2                !
 ! A72   A(38,36,39)           109.4712         estimate D2E/DX2                !
 ! D1    D(2,1,5,6)            -60.0002         estimate D2E/DX2                !
 ! D2    D(2,1,5,10)            59.9999         estimate D2E/DX2                !
 ! D3    D(2,1,5,13)           179.9999         estimate D2E/DX2                !
 ! D4    D(3,1,5,6)             59.9999         estimate D2E/DX2                !
 ! D5    D(3,1,5,10)           179.9999         estimate D2E/DX2                !
 ! D6    D(3,1,5,13)           -60.0001         estimate D2E/DX2                !
 ! D7    D(4,1,5,6)            179.9999         estimate D2E/DX2                !
 ! D8    D(4,1,5,10)           -60.0001         estimate D2E/DX2                !
 ! D9    D(4,1,5,13)            59.9999         estimate D2E/DX2                !
 ! D10   D(1,5,6,7)            179.8887         estimate D2E/DX2                !
 ! D11   D(1,5,6,8)            -60.1112         estimate D2E/DX2                !
 ! D12   D(1,5,6,9)             59.8888         estimate D2E/DX2                !
 ! D13   D(10,5,6,7)            59.8888         estimate D2E/DX2                !
 ! D14   D(10,5,6,8)           179.8888         estimate D2E/DX2                !
 ! D15   D(10,5,6,9)           -60.1112         estimate D2E/DX2                !
 ! D16   D(13,5,6,7)           -60.1113         estimate D2E/DX2                !
 ! D17   D(13,5,6,8)            59.8888         estimate D2E/DX2                !
 ! D18   D(13,5,6,9)           179.8888         estimate D2E/DX2                !
 ! D19   D(1,5,10,11)           59.9878         estimate D2E/DX2                !
 ! D20   D(1,5,10,12)          -60.0122         estimate D2E/DX2                !
 ! D21   D(1,5,10,16)          179.9878         estimate D2E/DX2                !
 ! D22   D(6,5,10,11)          179.9877         estimate D2E/DX2                !
 ! D23   D(6,5,10,12)           59.9878         estimate D2E/DX2                !
 ! D24   D(6,5,10,16)          -60.0122         estimate D2E/DX2                !
 ! D25   D(13,5,10,11)         -60.0122         estimate D2E/DX2                !
 ! D26   D(13,5,10,12)         179.9878         estimate D2E/DX2                !
 ! D27   D(13,5,10,16)          59.9878         estimate D2E/DX2                !
 ! D28   D(1,5,13,14)          -60.0094         estimate D2E/DX2                !
 ! D29   D(1,5,13,15)           59.9906         estimate D2E/DX2                !
 ! D30   D(1,5,13,17)          179.9906         estimate D2E/DX2                !
 ! D31   D(6,5,13,14)          179.9906         estimate D2E/DX2                !
 ! D32   D(6,5,13,15)          -60.0094         estimate D2E/DX2                !
 ! D33   D(6,5,13,17)           59.9906         estimate D2E/DX2                !
 ! D34   D(10,5,13,14)          59.9905         estimate D2E/DX2                !
 ! D35   D(10,5,13,15)         179.9905         estimate D2E/DX2                !
 ! D36   D(10,5,13,17)         -60.0095         estimate D2E/DX2                !
 ! D37   D(5,10,16,18)          93.2758         estimate D2E/DX2                !
 ! D38   D(5,10,16,33)        -146.7329         estimate D2E/DX2                !
 ! D39   D(11,10,16,18)       -146.7242         estimate D2E/DX2                !
 ! D40   D(11,10,16,33)        -26.7329         estimate D2E/DX2                !
 ! D41   D(12,10,16,18)        -26.7242         estimate D2E/DX2                !
 ! D42   D(12,10,16,33)         93.2671         estimate D2E/DX2                !
 ! D43   D(5,13,17,22)        -108.6948         estimate D2E/DX2                !
 ! D44   D(5,13,17,26)         131.3114         estimate D2E/DX2                !
 ! D45   D(14,13,17,22)        131.3052         estimate D2E/DX2                !
 ! D46   D(14,13,17,26)         11.3114         estimate D2E/DX2                !
 ! D47   D(15,13,17,22)         11.3052         estimate D2E/DX2                !
 ! D48   D(15,13,17,26)       -108.6886         estimate D2E/DX2                !
 ! D49   D(10,16,18,19)        129.2496         estimate D2E/DX2                !
 ! D50   D(10,16,18,20)       -110.7504         estimate D2E/DX2                !
 ! D51   D(10,16,18,21)          9.2496         estimate D2E/DX2                !
 ! D52   D(33,16,18,19)          9.2621         estimate D2E/DX2                !
 ! D53   D(33,16,18,20)        129.2621         estimate D2E/DX2                !
 ! D54   D(33,16,18,21)       -110.7379         estimate D2E/DX2                !
 ! D55   D(10,16,33,34)        167.1769         estimate D2E/DX2                !
 ! D56   D(10,16,33,35)         47.1769         estimate D2E/DX2                !
 ! D57   D(10,16,33,36)        -72.8231         estimate D2E/DX2                !
 ! D58   D(18,16,33,34)        -72.8369         estimate D2E/DX2                !
 ! D59   D(18,16,33,35)        167.1632         estimate D2E/DX2                !
 ! D60   D(18,16,33,36)         47.1632         estimate D2E/DX2                !
 ! D61   D(13,17,22,23)        112.2741         estimate D2E/DX2                !
 ! D62   D(13,17,22,24)       -127.7259         estimate D2E/DX2                !
 ! D63   D(13,17,22,25)         -7.7259         estimate D2E/DX2                !
 ! D64   D(26,17,22,23)       -127.7275         estimate D2E/DX2                !
 ! D65   D(26,17,22,24)         -7.7275         estimate D2E/DX2                !
 ! D66   D(26,17,22,25)        112.2725         estimate D2E/DX2                !
 ! D67   D(13,17,26,27)       -170.7073         estimate D2E/DX2                !
 ! D68   D(13,17,26,28)        -50.7073         estimate D2E/DX2                !
 ! D69   D(13,17,26,29)         69.2927         estimate D2E/DX2                !
 ! D70   D(22,17,26,27)         69.3096         estimate D2E/DX2                !
 ! D71   D(22,17,26,28)       -170.6904         estimate D2E/DX2                !
 ! D72   D(22,17,26,29)        -50.6904         estimate D2E/DX2                !
 ! D73   D(17,26,29,30)         84.8137         estimate D2E/DX2                !
 ! D74   D(17,26,29,31)       -155.1863         estimate D2E/DX2                !
 ! D75   D(17,26,29,32)        -35.1863         estimate D2E/DX2                !
 ! D76   D(27,26,29,30)        -35.1863         estimate D2E/DX2                !
 ! D77   D(27,26,29,31)         84.8137         estimate D2E/DX2                !
 ! D78   D(27,26,29,32)       -155.1863         estimate D2E/DX2                !
 ! D79   D(28,26,29,30)       -155.1863         estimate D2E/DX2                !
 ! D80   D(28,26,29,31)        -35.1863         estimate D2E/DX2                !
 ! D81   D(28,26,29,32)         84.8137         estimate D2E/DX2                !
 ! D82   D(16,33,36,37)        161.8814         estimate D2E/DX2                !
 ! D83   D(16,33,36,38)        -78.1186         estimate D2E/DX2                !
 ! D84   D(16,33,36,39)         41.8814         estimate D2E/DX2                !
 ! D85   D(34,33,36,37)        -78.1186         estimate D2E/DX2                !
 ! D86   D(34,33,36,38)         41.8814         estimate D2E/DX2                !
 ! D87   D(34,33,36,39)        161.8814         estimate D2E/DX2                !
 ! D88   D(35,33,36,37)         41.8814         estimate D2E/DX2                !
 ! D89   D(35,33,36,38)        161.8814         estimate D2E/DX2                !
 ! D90   D(35,33,36,39)        -78.1186         estimate D2E/DX2                !
 --------------------------------------------------------------------------------
 Trust Radius=3.00D-01 FncErr=1.00D-07 GrdErr=1.00D-06 EigMax=2.50D+02 EigMin=1.00D-04
 Number of steps in this run=    210 maximum allowed number of steps=    234.
 GradGradGradGradGradGradGradGradGradGradGradGradGradGradGradGradGradGrad

                          Input orientation:                          
 ---------------------------------------------------------------------
 Center     Atomic      Atomic             Coordinates (Angstroms)
 Number     Number       Type             X           Y           Z
 ---------------------------------------------------------------------
      1          6           0       -2.779412    1.514706    0.000000
      2          1           0       -2.422739    2.019104    0.873652
      3          1           0       -2.422739    2.019104   -0.873652
      4          1           0       -3.849412    1.514719    0.000000
      5          6           0       -2.266096    0.062774    0.000000
      6          6           0       -0.726096    0.062756   -0.000004
      7          1           0       -0.369442   -0.946053    0.001955
      8          1           0       -0.369426    0.565456   -0.874634
      9          1           0       -0.369421    0.568850    0.872665
     10          6           0       -2.779436   -0.663182    1.257407
     11          1           0       -3.849436   -0.662982    1.257516
     12          1           0       -2.422585   -0.158907    2.131057
     13          6           0       -2.779441   -0.663184   -1.257403
     14          1           0       -3.849441   -0.663315   -1.257317
     15          1           0       -2.422906   -0.158691   -2.131056
     16          7           0       -2.289694   -2.049202    1.257259
     17          7           0       -2.289271   -2.049053   -1.257517
     18          6           0       -1.033883   -2.125029    2.017580
     19          1           0       -1.100423   -2.912920    2.738482
     20          1           0       -0.222850   -2.321837    1.347959
     21          1           0       -0.864283   -1.195523    2.519731
     22          6           0       -1.263558   -2.205477   -2.298835
     23          1           0       -0.312520   -2.377571   -1.839694
     24          1           0       -1.513661   -3.037248   -2.923740
     25          1           0       -1.217886   -1.315472   -2.891038
     26          6           0       -3.407013   -2.964305   -1.529301
     27          1           0       -3.088447   -3.973360   -1.370484
     28          1           0       -4.220296   -2.739306   -0.871391
     29          6           0       -3.865959   -2.794684   -2.989506
     30          1           0       -3.257517   -3.401192   -3.627351
     31          1           0       -4.888496   -3.096748   -3.079365
     32          1           0       -3.770742   -1.768258   -3.276358
     33          6           0       -3.293553   -2.923510    1.880759
     34          1           0       -3.047115   -3.946084    1.684520
     35          1           0       -4.258819   -2.704889    1.474105
     36          6           0       -3.310642   -2.682359    3.401665
     37          1           0       -4.222865   -3.061580    3.812688
     38          1           0       -2.480383   -3.185235    3.851872
     39          1           0       -3.240550   -1.632708    3.597167
 ---------------------------------------------------------------------
                    Distance matrix (angstroms):
                    1          2          3          4          5
     1  C    0.000000
     2  H    1.070000   0.000000
     3  H    1.070000   1.747303   0.000000
     4  H    1.070000   1.747303   1.747303   0.000000
     5  C    1.540000   2.148263   2.148263   2.148263   0.000000
     6  C    2.514809   2.732978   2.732976   3.444314   1.540000
     7  H    3.444313   3.710531   3.711451   4.262111   2.148263
     8  H    2.733878   3.063607   2.515788   3.711655   2.148263
     9  H    2.732077   2.513832   3.060878   3.710330   2.148263
    10  C    2.514809   2.732976   3.444314   2.732979   1.540000
    11  H    2.732878   3.062091   3.710919   2.514702   2.148263
    12  H    2.733077   2.514915   3.711065   3.062395   2.148263
    13  C    2.514810   3.444314   2.732979   2.732977   1.540000
    14  H    2.733054   3.711048   3.062360   2.514891   2.148263
    15  H    2.732902   3.710937   2.514728   3.062126   2.148263
    16  N    3.810769   4.088517   4.594518   4.088393   2.457987
    17  N    3.810770   4.594518   4.088407   4.088504   2.457987
    18  C    4.512779   4.517890   5.240418   5.024500   3.221096
    19  H    5.470115   5.436081   6.254670   5.887293   4.208662
    20  H    4.803338   4.889606   5.349657   5.448679   3.417340
    21  H    4.166786   3.933471   4.927236   4.754519   3.146019
    22  C    4.628414   5.408832   4.606727   5.080467   3.381522
    23  H    4.961839   5.580862   4.971621   5.571714   3.627150
    24  H    5.556137   6.388529   5.531363   5.892740   4.327187
    25  H    4.336631   5.171456   4.079328   4.826283   3.369927
    26  C    4.774325   5.619372   5.121820   4.753539   3.578220
    27  H    5.665033   6.433423   6.049763   5.707566   4.341067
    28  H    4.575160   5.377625   5.086618   4.358165   3.525602
    29  C    5.356171   6.338724   5.452731   5.244843   4.434160
    30  H    6.127994   7.094750   6.136719   6.137931   5.112695
    31  H    5.932642   6.919411   6.092379   5.641615   5.132451
    32  H    4.742902   5.777872   4.683399   4.638820   4.043657
    33  C    4.847613   5.118790   5.724904   4.852227   3.675706
    34  H    5.720970   6.052340   6.520549   5.770759   4.417979
    35  H    4.708143   5.103709   5.585630   4.488395   3.715358
    36  C    5.428525   5.411375   6.416421   5.429278   4.494235
    37  H    6.128829   6.139360   7.142519   5.968130   5.303501
    38  H    6.084059   5.996521   7.029868   6.229023   5.043054
    39  H    4.801924   4.628400   5.830332   4.818363   4.094366
                    6          7          8          9         10
     6  C    0.000000
     7  H    1.070000   0.000000
     8  H    1.070000   1.747303   0.000000
     9  H    1.070000   1.747303   1.747303   0.000000
    10  C    2.514810   2.732077   3.444314   2.733880   0.000000
    11  H    3.444314   3.710380   4.262111   3.711606   1.070000
    12  H    2.732879   3.060730   3.711380   2.515683   1.070000
    13  C    2.514809   2.733879   2.732077   3.444313   2.514809
    14  H    3.444314   3.711617   3.710368   4.262111   2.732901
    15  H    2.733054   3.063722   2.513914   3.710587   3.444314
    16  N    2.913059   2.545603   3.881860   3.269489   1.470000
    17  N    2.912832   2.547278   3.266200   3.882901   2.913029
    18  C    2.991952   2.427800   4.005636   3.001554   2.400378
    19  H    4.061290   3.448403   5.068340   4.017258   3.173956
    20  H    2.785057   1.930284   3.646624   2.933165   3.048847
    21  H    2.819827   2.578041   3.855859   2.463884   2.354710
    22  C    3.273892   2.771142   3.241279   4.307527   4.162141
    23  H    3.083942   2.333272   3.097739   4.005188   4.314723
    24  H    4.333418   3.773861   4.299719   5.359657   4.971957
    25  H    3.240285   3.037390   2.885075   4.293719   4.480347
    26  C    4.323096   3.955367   4.702631   5.242098   3.668073
    27  H    4.873309   4.294318   5.314113   5.749477   4.237756
    28  H    4.562926   4.336770   5.074511   5.367948   3.304262
    29  C    5.192381   4.959023   5.290460   6.201250   4.874433
    30  H    5.618244   5.247909   5.626084   6.659766   5.620153
    31  H    6.065518   5.877235   6.220497   7.034003   5.401664
    32  H    4.832906   4.795019   4.773202   5.851962   4.770630
    33  C    4.364274   3.998834   5.321240   4.665124   2.400410
    34  H    4.929051   4.359030   5.837232   5.311665   3.321374
    35  H    4.723662   4.515306   5.598135   5.119230   2.530633
    36  C    5.078078   4.819071   6.122564   5.061322   2.992841
    37  H    6.043632   5.817733   7.069326   6.055806   3.790154
    38  H    5.335158   4.928678   6.392471   5.236887   3.630625
    39  H    4.704967   4.651914   5.750851   4.529145   2.574313
                   11         12         13         14         15
    11  H    0.000000
    12  H    1.747303   0.000000
    13  C    2.733076   3.444314   0.000000
    14  H    2.514833   3.710987   1.070000   0.000000
    15  H    3.711026   4.262112   1.070000   1.747303   0.000000
    16  N    2.086720   2.086720   2.912803   3.267504   3.882326
    17  N    3.268134   3.882378   1.470000   2.086720   2.086720
    18  C    3.262302   2.409773   3.988669   4.559488   4.796567
    19  H    3.848708   3.114750   4.883392   5.346423   5.748664
    20  H    3.988998   3.182820   4.009388   4.763436   4.650053
    21  H    3.284497   1.911530   4.268250   4.843605   5.013396
    22  C    4.659795   5.015550   2.400240   3.185877   2.358299
    23  H    5.004229   5.014151   3.060047   3.973367   3.076045
    24  H    5.345642   5.887441   3.164657   3.724029   3.121084
    25  H    4.955936   5.292483   2.352168   3.165349   1.835154
    26  C    3.641178   4.715674   2.400610   2.358871   3.033487
    27  H    4.294659   5.220557   3.326490   3.398281   3.946279
    28  H    2.996816   4.347978   2.556433   2.143877   3.387763
    29  C    4.752013   5.937239   2.953641   2.746540   3.125348
    30  H    5.631171   6.660990   3.652656   3.669251   3.667327
    31  H    5.080493   6.469941   3.699986   3.212646   3.951027
    32  H    4.667317   5.800662   2.506003   2.302959   2.391462
    33  C    2.409860   2.909341   3.901467   3.907047   4.949435
    34  H    3.406584   3.864213   4.416332   4.480480   5.412264
    35  H    2.093774   3.207080   3.717291   3.434572   4.780260
    36  C    2.994254   2.961570   5.105502   5.106168   6.145565
    37  H    3.524433   3.807152   5.791511   5.621038   6.855269
    38  H    3.868688   3.481840   5.705687   5.859882   6.705125
    39  H    2.604818   2.233973   4.971866   4.987634   5.971081
                   16         17         18         19         20
    16  N    0.000000
    17  N    2.514775   0.000000
    18  C    1.470000   3.508280   0.000000
    19  H    2.086720   4.257656   1.070000   0.000000
    20  H    2.086720   3.336616   1.070000   1.747303   0.000000
    21  H    2.086720   4.126342   1.070000   1.747303   1.747303
    22  C    3.704481   1.470000   4.323270   5.089367   3.794169
    23  H    3.688924   2.086720   3.932265   4.676226   3.189402
    24  H    4.365685   2.086720   5.047670   5.678643   4.519449
    25  H    4.346895   2.086720   4.978331   5.852960   4.469000
    26  C    3.138588   1.470000   4.349310   4.851493   4.339388
    27  H    3.353419   2.086720   4.372247   4.686190   4.281250
    28  H    2.955439   2.086720   4.344735   4.774405   4.591227
    29  C    4.590791   2.457987   5.791374   6.361763   5.684139
    30  H    5.159842   2.895150   6.199870   6.739088   5.926881
    31  H    5.163084   3.342570   6.463833   6.944829   6.478422
    32  H    4.777669   2.519787   5.970215   6.679758   5.854767
    33  C    1.470000   3.409110   2.400500   2.354915   3.174130
    34  H    2.086720   3.581708   2.735009   2.442924   3.275351
    35  H    2.086720   3.430889   3.321418   3.408430   4.056068
    36  C    2.457987   4.811678   2.722120   2.319060   3.725874
    37  H    3.360398   5.520052   3.777452   3.305399   4.756283
    38  H    2.838829   5.237679   2.565351   1.793902   3.480157
    39  H    2.559837   4.964497   2.758052   2.637504   3.826270
                   21         22         23         24         25
    21  H    0.000000
    22  C    4.939434   0.000000
    23  H    4.550414   1.070000   0.000000
    24  H    5.783166   1.070000   1.747303   0.000000
    25  H    5.423637   1.070000   1.747303   1.747303   0.000000
    26  C    5.097914   2.400500   3.164884   2.352565   3.060271
    27  H    5.272291   2.705081   3.236120   2.401845   3.588238
    28  H    5.014558   3.326390   4.042175   3.409806   3.888540
    29  C    6.474493   2.756208   3.758055   2.365686   3.034808
    30  H    6.955513   2.677790   3.593957   1.915348   3.008734
    31  H    7.152540   3.813630   4.795160   3.378946   4.084335
    32  H    6.509238   2.726295   3.794017   2.613253   2.621176
    33  C    3.048865   4.701644   4.798581   5.124857   5.446488
    34  H    3.609421   4.698713   4.728459   4.941004   5.585869
    35  H    3.859325   4.843148   5.163495   5.194940   5.498384
    36  C    2.995523   6.075662   6.045947   6.585274   6.770976
    37  H    4.053884   6.844058   6.907104   7.260843   7.551075
    38  H    2.888829   6.346006   6.143768   6.845828   7.110327
    39  H    2.645495   6.244950   6.219939   6.890363   6.803574
                   26         27         28         29         30
    26  C    0.000000
    27  H    1.070000   0.000000
    28  H    1.070000   1.747303   0.000000
    29  C    1.540000   2.148263   2.148263   0.000000
    30  H    2.148263   2.334397   2.993385   1.070000   0.000000
    31  H    2.148263   2.632281   2.334397   1.070000   1.747303
    32  H    2.148263   2.993386   2.632281   1.070000   1.747303
    33  C    3.412191   3.422694   2.909830   4.905479   5.528902
    34  H    3.379654   3.055405   3.060285   4.882903   5.343889
    35  H    3.132622   3.327233   2.346065   4.481766   5.245217
    36  C    4.939960   4.948682   4.369178   6.416234   7.065876
    37  H    5.404806   5.383634   4.695153   6.816778   7.510088
    38  H    5.464840   5.316379   5.053253   6.991195   7.522590
    39  H    5.299202   5.493573   4.706641   6.717558   7.437841
                   31         32         33         34         35
    31  H    0.000000
    32  H    1.747303   0.000000
    33  C    5.213127   5.306428   0.000000
    34  H    5.177515   5.465974   1.070000   0.000000
    35  H    4.613474   4.866457   1.070000   1.747303   0.000000
    36  C    6.683195   6.755980   1.540000   2.148263   2.148263
    37  H    6.924211   7.220227   2.148263   2.587245   2.365902
    38  H    7.338180   7.381363   2.148263   2.365902   3.007880
    39  H    7.031019   6.895276   2.148263   3.007880   2.587244
                   36         37         38         39
    36  C    0.000000
    37  H    1.070000   0.000000
    38  H    1.070000   1.747303   0.000000
    39  H    1.070000   1.747303   1.747303   0.000000
 Stoichiometry    C11H26N2
 Framework group  C1[X(C11H26N2)]
 Deg. of freedom   111
 Full point group                 C1      NOp   1
 Largest Abelian subgroup         C1      NOp   1
 Largest concise Abelian subgroup C1      NOp   1
                         Standard orientation:                         
 ---------------------------------------------------------------------
 Center     Atomic      Atomic             Coordinates (Angstroms)
 Number     Number       Type             X           Y           Z
 ---------------------------------------------------------------------
      1          6           0        0.046671    2.736957   -1.314470
      2          1           0       -0.843270    3.316985   -1.186128
      3          1           0        0.902219    3.346960   -1.112400
      4          1           0        0.095365    2.376361   -2.320701
      5          6           0        0.026086    1.543187   -0.341798
      6          6           0       -0.043994    2.062176    1.106421
      7          1           0       -0.060253    1.232708    1.782156
      8          1           0        0.812536    2.670598    1.309103
      9          1           0       -0.932957    2.643820    1.234235
     10          6           0       -1.205266    0.665240   -0.632626
     11          1           0       -1.156681    0.304819   -1.638924
     12          1           0       -2.095213    1.245213   -0.504075
     13          6           0        1.306934    0.708377   -0.526517
     14          1           0        1.355543    0.347644   -1.532703
     15          1           0        2.162490    1.318424   -0.324609
     16          7           0       -1.224756   -0.474426    0.295642
     17          7           0        1.287390   -0.431003    0.402101
     18          6           0       -2.041294   -0.135618    1.470110
     19          1           0       -2.756913   -0.912086    1.642990
     20          1           0       -1.408901   -0.036063    2.327471
     21          1           0       -2.552419    0.787909    1.294754
     22          6           0        2.281248   -0.214705    1.463403
     23          1           0        1.779632   -0.064064    2.396457
     24          1           0        2.918476   -1.071254    1.535254
     25          1           0        2.869056    0.648647    1.231010
     26          6           0        1.611510   -1.664603   -0.328704
     27          1           0        1.440289   -2.509831    0.304677
     28          1           0        0.990863   -1.738178   -1.197200
     29          6           0        3.090761   -1.634555   -0.755921
     30          1           0        3.701414   -1.989488    0.047836
     31          1           0        3.227639   -2.261972   -1.611790
     32          1           0        3.371020   -0.631326   -1.000640
     33          6           0       -1.800253   -1.646462   -0.379661
     34          1           0       -1.613477   -2.522634    0.205435
     35          1           0       -1.350511   -1.759000   -1.344009
     36          6           0       -3.319263   -1.451306   -0.541281
     37          1           0       -3.687621   -2.122769   -1.288510
     38          1           0       -3.805826   -1.652597    0.390190
     39          1           0       -3.519760   -0.442958   -0.837819
 ---------------------------------------------------------------------
 Rotational constants (GHZ):           0.9033591           0.6239665           0.4839702
 Standard basis: 6-31G(d) (6D, 7F)
 There are   247 symmetry adapted cartesian basis functions of A   symmetry.
 There are   247 symmetry adapted basis functions of A   symmetry.
   247 basis functions,   468 primitive gaussians,   247 cartesian basis functions
    53 alpha electrons       53 beta electrons
       nuclear repulsion energy       965.0441513491 Hartrees.
 NAtoms=   39 NActive=   39 NUniq=   39 SFac= 1.00D+00 NAtFMM=   60 NAOKFM=F Big=F
 Integral buffers will be    131072 words long.
 Raffenetti 2 integral format.
 Two-electron integral symmetry is turned on.
 ------------------------------------------------------------------------------
 Polarizable Continuum Model (PCM)
 =================================
 Model                : PCM.
 Atomic radii         : SMD-Coulomb.
 Polarization charges : Total charges.
 Charge compensation  : None.
 Solution method      : On-the-fly selection.
 Cavity type          : VdW (van der Waals Surface) (Alpha=1.000).
 Cavity algorithm     : GePol (No added spheres)
                        Default sphere list used, NSphG=   39.
                        Lebedev-Laikov grids with approx.  5.0 points / Ang**2.
                        Smoothing algorithm: York/Karplus (Gamma=1.0000).
                        Polarization charges: spherical gaussians, with
                                              point-specific exponents (IZeta= 3).
                        Self-potential: point-specific (ISelfS= 7).
                        Self-field    : sphere-specific E.n sum rule (ISelfD= 2).
 1st derivatives      : Analytical E(r).r(x)/FMM algorithm (CHGder, D1EAlg=3).
                        Cavity 1st derivative terms included.
 Solvent              : Toluene, Eps=   2.374100 Eps(inf)=   2.238315
 ------------------------------------------------------------------------------
 ------------------------------------------------------------------------------
 Atomic radii for non-electrostatic terms: SMD-CDS.
 ------------------------------------------------------------------------------
 Nuclear repulsion after PCM non-electrostatic terms =      965.0379806334 Hartrees.
 One-electron integrals computed using PRISM.
 NBasis=   247 RedAO= T EigKep=  2.73D-03  NBF=   247
 NBsUse=   247 1.00D-06 EigRej= -1.00D+00 NBFU=   247
 ExpMin= 1.61D-01 ExpMax= 4.17D+03 ExpMxC= 6.27D+02 IAcc=3 IRadAn=         5 AccDes= 0.00D+00
 Harris functional with IExCor=  402 and IRadAn=       5 diagonalized for initial guess.
 HarFok:  IExCor=  402 AccDes= 0.00D+00 IRadAn=         5 IDoV= 1 UseB2=F ITyADJ=14
 ICtDFT=  3500011 ScaDFX=  1.000000  1.000000  1.000000  1.000000
 FoFCou: FMM=F IPFlag=           0 FMFlag=      100000 FMFlg1=           0
         NFxFlg=           0 DoJE=T BraDBF=F KetDBF=T FulRan=T
         wScrn=  0.000000 ICntrl=       500 IOpCl=  0 I1Cent=   200000004 NGrid=           0
         NMat0=    1 NMatS0=      1 NMatT0=    0 NMatD0=    1 NMtDS0=    0 NMtDT0=    0
 Petite list used in FoFCou.
 Requested convergence on RMS density matrix=1.00D-08 within 128 cycles.
 Requested convergence on MAX density matrix=1.00D-06.
 Requested convergence on             energy=1.00D-06.
 No special actions if energy rises.
 Inv3:  Mode=1 IEnd=    15828627.
 Iteration    1 A*A^-1 deviation from unit magnitude is 4.88D-15 for   2296.
 Iteration    1 A*A^-1 deviation from orthogonality  is 2.09D-15 for   2296   1896.
 Iteration    1 A^-1*A deviation from unit magnitude is 4.88D-15 for   2296.
 Iteration    1 A^-1*A deviation from orthogonality  is 1.66D-15 for   2290   1712.
 Error on total polarization charges =  0.03565
 SCF Done:  E(RB3LYP) =  -544.237517402     A.U. after   11 cycles
            NFock= 11  Conv=0.63D-08     -V/T= 2.0073
 SMD-CDS (non-electrostatic) energy       (kcal/mol) =      -3.87
 (included in total energy above)

 **********************************************************************

            Population analysis using the SCF Density.

 **********************************************************************

 Orbital symmetries:
       Occupied  (A) (A) (A) (A) (A) (A) (A) (A) (A) (A) (A) (A)
                 (A) (A) (A) (A) (A) (A) (A) (A) (A) (A) (A) (A)
                 (A) (A) (A) (A) (A) (A) (A) (A) (A) (A) (A) (A)
                 (A) (A) (A) (A) (A) (A) (A) (A) (A) (A) (A) (A)
                 (A) (A) (A) (A) (A)
       Virtual   (A) (A) (A) (A) (A) (A) (A) (A) (A) (A) (A) (A)
                 (A) (A) (A) (A) (A) (A) (A) (A) (A) (A) (A) (A)
                 (A) (A) (A) (A) (A) (A) (A) (A) (A) (A) (A) (A)
                 (A) (A) (A) (A) (A) (A) (A) (A) (A) (A) (A) (A)
                 (A) (A) (A) (A) (A) (A) (A) (A) (A) (A) (A) (A)
                 (A) (A) (A) (A) (A) (A) (A) (A) (A) (A) (A) (A)
                 (A) (A) (A) (A) (A) (A) (A) (A) (A) (A) (A) (A)
                 (A) (A) (A) (A) (A) (A) (A) (A) (A) (A) (A) (A)
                 (A) (A) (A) (A) (A) (A) (A) (A) (A) (A) (A) (A)
                 (A) (A) (A) (A) (A) (A) (A) (A) (A) (A) (A) (A)
                 (A) (A) (A) (A) (A) (A) (A) (A) (A) (A) (A) (A)
                 (A) (A) (A) (A) (A) (A) (A) (A) (A) (A) (A) (A)
                 (A) (A) (A) (A) (A) (A) (A) (A) (A) (A) (A) (A)
                 (A) (A) (A) (A) (A) (A) (A) (A) (A) (A) (A) (A)
                 (A) (A) (A) (A) (A) (A) (A) (A) (A) (A) (A) (A)
                 (A) (A) (A) (A) (A) (A) (A) (A) (A) (A) (A) (A)
                 (A) (A)
 The electronic state is 1-A.
 Alpha  occ. eigenvalues --  -14.28800 -14.28638 -10.18260 -10.18161 -10.17664
 Alpha  occ. eigenvalues --  -10.17547 -10.16989 -10.16974 -10.16955 -10.15244
 Alpha  occ. eigenvalues --  -10.15107 -10.15087 -10.14469  -0.90871  -0.89216
 Alpha  occ. eigenvalues --   -0.79592  -0.73000  -0.72745  -0.69095  -0.68190
 Alpha  occ. eigenvalues --   -0.67303  -0.64432  -0.64126  -0.57105  -0.55699
 Alpha  occ. eigenvalues --   -0.52393  -0.47869  -0.46860  -0.46698  -0.46259
 Alpha  occ. eigenvalues --   -0.44439  -0.42670  -0.41741  -0.41546  -0.40506
 Alpha  occ. eigenvalues --   -0.39570  -0.38983  -0.37790  -0.37515  -0.36688
 Alpha  occ. eigenvalues --   -0.36161  -0.35806  -0.34942  -0.34851  -0.34487
 Alpha  occ. eigenvalues --   -0.33770  -0.32702  -0.32448  -0.30186  -0.29823
 Alpha  occ. eigenvalues --   -0.29286  -0.21317  -0.14423
 Alpha virt. eigenvalues --    0.08254   0.11321   0.11429   0.11719   0.12302
 Alpha virt. eigenvalues --    0.12744   0.13240   0.14750   0.15504   0.15686
 Alpha virt. eigenvalues --    0.17081   0.17196   0.17899   0.18047   0.19380
 Alpha virt. eigenvalues --    0.20007   0.20199   0.20655   0.20866   0.21948
 Alpha virt. eigenvalues --    0.22144   0.22522   0.23487   0.23810   0.24854
 Alpha virt. eigenvalues --    0.25125   0.25923   0.26742   0.27120   0.27757
 Alpha virt. eigenvalues --    0.27849   0.29836   0.31477   0.31849   0.32071
 Alpha virt. eigenvalues --    0.32295   0.33513   0.35864   0.48554   0.49903
 Alpha virt. eigenvalues --    0.51719   0.52663   0.53080   0.53621   0.55950
 Alpha virt. eigenvalues --    0.56525   0.57001   0.57416   0.58173   0.60441
 Alpha virt. eigenvalues --    0.60888   0.61496   0.63270   0.63785   0.64596
 Alpha virt. eigenvalues --    0.69736   0.71075   0.71861   0.75607   0.76631
 Alpha virt. eigenvalues --    0.77450   0.78024   0.79702   0.79974   0.81354
 Alpha virt. eigenvalues --    0.83545   0.83929   0.86519   0.87516   0.88048
 Alpha virt. eigenvalues --    0.88705   0.88863   0.89665   0.90144   0.90490
 Alpha virt. eigenvalues --    0.91907   0.92335   0.92902   0.93324   0.93868
 Alpha virt. eigenvalues --    0.94330   0.94905   0.95960   0.96519   0.97214
 Alpha virt. eigenvalues --    0.97476   0.98133   0.98892   0.99681   1.00788
 Alpha virt. eigenvalues --    1.01196   1.02517   1.03348   1.04466   1.06148
 Alpha virt. eigenvalues --    1.07191   1.08466   1.08691   1.08890   1.11805
 Alpha virt. eigenvalues --    1.14607   1.15462   1.18030   1.20862   1.27908
 Alpha virt. eigenvalues --    1.28708   1.32972   1.34687   1.36156   1.44223
 Alpha virt. eigenvalues --    1.47727   1.51600   1.52484   1.53015   1.54240
 Alpha virt. eigenvalues --    1.61149   1.63355   1.66080   1.70098   1.72672
 Alpha virt. eigenvalues --    1.73929   1.75444   1.78435   1.79958   1.82459
 Alpha virt. eigenvalues --    1.83868   1.88110   1.90079   1.91943   1.92239
 Alpha virt. eigenvalues --    1.93489   1.94998   1.98197   1.99045   2.01241
 Alpha virt. eigenvalues --    2.02100   2.05368   2.07649   2.07927   2.08011
 Alpha virt. eigenvalues --    2.09816   2.11686   2.12500   2.14455   2.15476
 Alpha virt. eigenvalues --    2.18731   2.20903   2.24652   2.25519   2.26329
 Alpha virt. eigenvalues --    2.26913   2.28614   2.29433   2.30263   2.31849
 Alpha virt. eigenvalues --    2.33383   2.35327   2.36324   2.36905   2.38171
 Alpha virt. eigenvalues --    2.39033   2.40684   2.42232   2.43056   2.51145
 Alpha virt. eigenvalues --    2.52486   2.54800   2.55151   2.58941   2.60659
 Alpha virt. eigenvalues --    2.63176   2.66038   2.71237   2.73115   2.75852
 Alpha virt. eigenvalues --    2.81235   2.83657   2.86031   2.87896   2.94645
 Alpha virt. eigenvalues --    2.95996   4.13792   4.20966   4.22473   4.26789
 Alpha virt. eigenvalues --    4.27568   4.31336   4.36070   4.41534   4.42473
 Alpha virt. eigenvalues --    4.50839   4.54554   4.62584   4.80117
          Condensed to atoms (all electrons):
               1          2          3          4          5          6
     1  C    5.186615   0.368113   0.368592   0.367710   0.348906  -0.061826
     2  H    0.368113   0.574397  -0.030810  -0.030683  -0.027949  -0.005643
     3  H    0.368592  -0.030810   0.574058  -0.030449  -0.028676  -0.005315
     4  H    0.367710  -0.030683  -0.030449   0.580512  -0.030230   0.006664
     5  C    0.348906  -0.027949  -0.028676  -0.030230   4.847787   0.392044
     6  C   -0.061826  -0.005643  -0.005315   0.006664   0.392044   5.187451
     7  H    0.006489  -0.000062  -0.000031  -0.000224  -0.024248   0.369186
     8  H   -0.006149  -0.000295   0.005099  -0.000044  -0.031710   0.365053
     9  H   -0.005432   0.004967  -0.000264  -0.000055  -0.031225   0.367866
    10  C   -0.055121  -0.005446   0.005537  -0.005954   0.394385  -0.057917
    11  H   -0.003464  -0.000265  -0.000125   0.005081  -0.037236   0.006672
    12  H   -0.001764   0.006397  -0.000243  -0.000345  -0.053718  -0.008812
    13  C   -0.053363   0.005520  -0.005410  -0.005806   0.389591  -0.057457
    14  H   -0.002671  -0.000161  -0.000135   0.005260  -0.041780   0.006689
    15  H   -0.001841  -0.000218   0.005968  -0.000181  -0.052217  -0.007725
    16  N    0.004497   0.000044  -0.000136   0.000014  -0.054913  -0.007580
    17  N    0.004677  -0.000142   0.000060   0.000030  -0.057070  -0.010416
    18  C   -0.000079  -0.000058   0.000008   0.000001  -0.001622  -0.002667
    19  H    0.000011   0.000001  -0.000000  -0.000000  -0.000167   0.000461
    20  H   -0.000031  -0.000005   0.000001  -0.000000   0.001129  -0.004286
    21  H    0.000015   0.000048   0.000001   0.000002  -0.005013  -0.000580
    22  C   -0.000156   0.000008  -0.000051  -0.000002   0.002864  -0.000089
    23  H   -0.000020   0.000000  -0.000003  -0.000001   0.000838   0.000474
    24  H    0.000009  -0.000000   0.000001  -0.000000  -0.000301   0.000062
    25  H    0.000046   0.000000   0.000029   0.000004  -0.003351  -0.000193
    26  C   -0.000146   0.000004  -0.000003  -0.000012   0.001662   0.000323
    27  H    0.000003  -0.000000  -0.000000   0.000000  -0.000064   0.000016
    28  H   -0.000078   0.000002  -0.000000  -0.000008   0.000091   0.000011
    29  C    0.000027  -0.000000   0.000001  -0.000001   0.000247  -0.000039
    30  H   -0.000000  -0.000000   0.000000   0.000000  -0.000031   0.000001
    31  H   -0.000001   0.000000  -0.000000  -0.000000   0.000015   0.000000
    32  H    0.000025  -0.000000   0.000002   0.000002  -0.000109   0.000004
    33  C   -0.000192  -0.000004   0.000004  -0.000006   0.003837   0.000280
    34  H    0.000003  -0.000000  -0.000000   0.000000  -0.000086   0.000010
    35  H   -0.000036   0.000000   0.000001  -0.000008   0.000197   0.000008
    36  C    0.000018   0.000000  -0.000000  -0.000001   0.000145  -0.000045
    37  H   -0.000000  -0.000000   0.000000  -0.000000   0.000010   0.000000
    38  H   -0.000000   0.000000  -0.000000   0.000000  -0.000030  -0.000000
    39  H    0.000018   0.000000  -0.000000   0.000001  -0.000145   0.000007
               7          8          9         10         11         12
     1  C    0.006489  -0.006149  -0.005432  -0.055121  -0.003464  -0.001764
     2  H   -0.000062  -0.000295   0.004967  -0.005446  -0.000265   0.006397
     3  H   -0.000031   0.005099  -0.000264   0.005537  -0.000125  -0.000243
     4  H   -0.000224  -0.000044  -0.000055  -0.005954   0.005081  -0.000345
     5  C   -0.024248  -0.031710  -0.031225   0.394385  -0.037236  -0.053718
     6  C    0.369186   0.365053   0.367866  -0.057917   0.006672  -0.008812
     7  H    0.530941  -0.028911  -0.031345  -0.008519  -0.000025   0.000032
     8  H   -0.028911   0.588523  -0.030808   0.006035  -0.000193  -0.000107
     9  H   -0.031345  -0.030808   0.585511  -0.005436  -0.000054   0.005108
    10  C   -0.008519   0.006035  -0.005436   5.039420   0.363402   0.343746
    11  H   -0.000025  -0.000193  -0.000054   0.363402   0.611442  -0.036008
    12  H    0.000032  -0.000107   0.005108   0.343746  -0.036008   0.662695
    13  C   -0.008285  -0.005264   0.005862  -0.048272  -0.007529   0.006014
    14  H    0.000083  -0.000017  -0.000201  -0.008393   0.004885  -0.000178
    15  H    0.000367   0.005081  -0.000035   0.005701  -0.000050  -0.000276
    16  N    0.003276  -0.000110  -0.000147   0.307509  -0.038928  -0.044479
    17  N    0.009174  -0.000127   0.000036  -0.008064  -0.000486  -0.000790
    18  C   -0.001037   0.000206  -0.000915  -0.048473   0.007463  -0.025414
    19  H    0.000490  -0.000015   0.000064   0.003034  -0.000357   0.002342
    20  H    0.002835   0.000254  -0.000351   0.006326  -0.000377  -0.001684
    21  H   -0.001061   0.000044   0.002602  -0.019166   0.000841   0.024766
    22  C   -0.001454   0.000074   0.000061   0.000070   0.000005   0.000023
    23  H    0.000496  -0.000093   0.000030   0.000102  -0.000002   0.000007
    24  H    0.000229   0.000029  -0.000003  -0.000009  -0.000001  -0.000001
    25  H    0.000389   0.001031  -0.000000  -0.000044  -0.000002  -0.000005
    26  C   -0.000057  -0.000019   0.000001   0.000554  -0.000053   0.000060
    27  H   -0.000008  -0.000001  -0.000001  -0.000106   0.000016   0.000002
    28  H   -0.000019  -0.000001   0.000000   0.000379   0.000198   0.000009
    29  C    0.000022   0.000002   0.000000  -0.000076  -0.000009   0.000000
    30  H   -0.000001   0.000000  -0.000000   0.000002   0.000000  -0.000000
    31  H   -0.000000  -0.000000  -0.000000   0.000003   0.000000   0.000000
    32  H    0.000004  -0.000002  -0.000000  -0.000011  -0.000002  -0.000000
    33  C   -0.000047   0.000004  -0.000032  -0.048307  -0.008549  -0.000592
    34  H    0.000002  -0.000000  -0.000001   0.007347   0.000376  -0.000635
    35  H   -0.000004  -0.000000  -0.000000  -0.009696   0.006984  -0.000036
    36  C    0.000012   0.000000   0.000004  -0.012279  -0.001070   0.001975
    37  H   -0.000000  -0.000000  -0.000000   0.000319  -0.000195  -0.000379
    38  H   -0.000001  -0.000000   0.000000  -0.000540   0.000079   0.000404
    39  H    0.000003  -0.000000  -0.000007   0.006505   0.001082   0.003346
              13         14         15         16         17         18
     1  C   -0.053363  -0.002671  -0.001841   0.004497   0.004677  -0.000079
     2  H    0.005520  -0.000161  -0.000218   0.000044  -0.000142  -0.000058
     3  H   -0.005410  -0.000135   0.005968  -0.000136   0.000060   0.000008
     4  H   -0.005806   0.005260  -0.000181   0.000014   0.000030   0.000001
     5  C    0.389591  -0.041780  -0.052217  -0.054913  -0.057070  -0.001622
     6  C   -0.057457   0.006689  -0.007725  -0.007580  -0.010416  -0.002667
     7  H   -0.008285   0.000083   0.000367   0.003276   0.009174  -0.001037
     8  H   -0.005264  -0.000017   0.005081  -0.000110  -0.000127   0.000206
     9  H    0.005862  -0.000201  -0.000035  -0.000147   0.000036  -0.000915
    10  C   -0.048272  -0.008393   0.005701   0.307509  -0.008064  -0.048473
    11  H   -0.007529   0.004885  -0.000050  -0.038928  -0.000486   0.007463
    12  H    0.006014  -0.000178  -0.000276  -0.044479  -0.000790  -0.025414
    13  C    5.041409   0.359752   0.351183  -0.003750   0.300011  -0.000162
    14  H    0.359752   0.618727  -0.031578  -0.001279  -0.040047   0.000045
    15  H    0.351183  -0.031578   0.641174  -0.000529  -0.038776   0.000018
    16  N   -0.003750  -0.001279  -0.000529   6.878139  -0.073000   0.309983
    17  N    0.300011  -0.040047  -0.038776  -0.073000   6.886010   0.002289
    18  C   -0.000162   0.000045   0.000018   0.309983   0.002289   5.045321
    19  H   -0.000011  -0.000002  -0.000001  -0.036953  -0.000198   0.366049
    20  H    0.000126   0.000005   0.000019  -0.060660   0.003007   0.385486
    21  H    0.000031  -0.000008  -0.000006  -0.039017  -0.000376   0.361256
    22  C   -0.050555   0.006001  -0.027032   0.002305   0.302733  -0.000134
    23  H    0.006608  -0.000456  -0.001294   0.001069  -0.060536  -0.000072
    24  H    0.002889  -0.000244   0.002244  -0.000194  -0.036552   0.000002
    25  H   -0.023542   0.001726   0.023454  -0.000265  -0.036598   0.000009
    26  C   -0.044500  -0.009306   0.002777   0.004657   0.340636  -0.000111
    27  H    0.007183   0.000317  -0.000543   0.001253  -0.042771  -0.000021
    28  H   -0.007058   0.003847  -0.000033  -0.000605  -0.038879  -0.000004
    29  C   -0.013993   0.000139   0.000560   0.000152  -0.062997   0.000001
    30  H   -0.000356   0.000152   0.000204  -0.000008  -0.001154   0.000000
    31  H    0.000375  -0.000636  -0.000190   0.000009   0.005143  -0.000000
    32  H    0.006961   0.002916   0.001207  -0.000018  -0.013284   0.000000
    33  C    0.000392  -0.000051   0.000017   0.340371   0.001034  -0.055718
    34  H   -0.000089   0.000020   0.000001  -0.045196   0.000818  -0.001381
    35  H    0.000048  -0.000020  -0.000001  -0.038264  -0.000129   0.007008
    36  C   -0.000016  -0.000008  -0.000000  -0.063471  -0.000077  -0.023336
    37  H    0.000001   0.000000   0.000000   0.005151   0.000003   0.001264
    38  H    0.000001  -0.000000  -0.000000  -0.002392  -0.000003  -0.004438
    39  H   -0.000005  -0.000002  -0.000000  -0.010908  -0.000013  -0.001235
              19         20         21         22         23         24
     1  C    0.000011  -0.000031   0.000015  -0.000156  -0.000020   0.000009
     2  H    0.000001  -0.000005   0.000048   0.000008   0.000000  -0.000000
     3  H   -0.000000   0.000001   0.000001  -0.000051  -0.000003   0.000001
     4  H   -0.000000  -0.000000   0.000002  -0.000002  -0.000001  -0.000000
     5  C   -0.000167   0.001129  -0.005013   0.002864   0.000838  -0.000301
     6  C    0.000461  -0.004286  -0.000580  -0.000089   0.000474   0.000062
     7  H    0.000490   0.002835  -0.001061  -0.001454   0.000496   0.000229
     8  H   -0.000015   0.000254   0.000044   0.000074  -0.000093   0.000029
     9  H    0.000064  -0.000351   0.002602   0.000061   0.000030  -0.000003
    10  C    0.003034   0.006326  -0.019166   0.000070   0.000102  -0.000009
    11  H   -0.000357  -0.000377   0.000841   0.000005  -0.000002  -0.000001
    12  H    0.002342  -0.001684   0.024766   0.000023   0.000007  -0.000001
    13  C   -0.000011   0.000126   0.000031  -0.050555   0.006608   0.002889
    14  H   -0.000002   0.000005  -0.000008   0.006001  -0.000456  -0.000244
    15  H   -0.000001   0.000019  -0.000006  -0.027032  -0.001294   0.002244
    16  N   -0.036953  -0.060660  -0.039017   0.002305   0.001069  -0.000194
    17  N   -0.000198   0.003007  -0.000376   0.302733  -0.060536  -0.036552
    18  C    0.366049   0.385486   0.361256  -0.000134  -0.000072   0.000002
    19  H    0.593715  -0.036681  -0.023357   0.000003   0.000014  -0.000000
    20  H   -0.036681   0.596716  -0.048639  -0.000117  -0.000370   0.000028
    21  H   -0.023357  -0.048639   0.607536   0.000016   0.000024  -0.000001
    22  C    0.000003  -0.000117   0.000016   5.044394   0.389271   0.364739
    23  H    0.000014  -0.000370   0.000024   0.389271   0.599567  -0.039031
    24  H   -0.000000   0.000028  -0.000001   0.364739  -0.039031   0.593224
    25  H   -0.000001   0.000045  -0.000003   0.356166  -0.047909  -0.020578
    26  C    0.000012  -0.000090   0.000016  -0.057148   0.005126  -0.013434
    27  H    0.000009  -0.000033   0.000002  -0.001910   0.001056  -0.000448
    28  H   -0.000001  -0.000007   0.000001   0.007318  -0.000159   0.000307
    29  C   -0.000000  -0.000000   0.000000  -0.019390  -0.000184   0.002303
    30  H   -0.000000   0.000000  -0.000000  -0.002541   0.000084   0.003749
    31  H    0.000000  -0.000000   0.000000   0.001121  -0.000001  -0.000428
    32  H   -0.000000   0.000000  -0.000000  -0.001892  -0.000059   0.000859
    33  C   -0.014057   0.005406   0.001460  -0.000047  -0.000004  -0.000001
    34  H   -0.000171   0.001097  -0.000547  -0.000018  -0.000010   0.000006
    35  H    0.000389  -0.000178  -0.000457  -0.000005  -0.000000  -0.000000
    36  C    0.000192  -0.000171   0.002198   0.000002   0.000000  -0.000000
    37  H   -0.000383   0.000001  -0.000141  -0.000000  -0.000000   0.000000
    38  H    0.004522   0.000095  -0.000336  -0.000000   0.000000  -0.000000
    39  H    0.000428  -0.000040   0.000566   0.000000   0.000000  -0.000000
              25         26         27         28         29         30
     1  C    0.000046  -0.000146   0.000003  -0.000078   0.000027  -0.000000
     2  H    0.000000   0.000004  -0.000000   0.000002  -0.000000  -0.000000
     3  H    0.000029  -0.000003  -0.000000  -0.000000   0.000001   0.000000
     4  H    0.000004  -0.000012   0.000000  -0.000008  -0.000001   0.000000
     5  C   -0.003351   0.001662  -0.000064   0.000091   0.000247  -0.000031
     6  C   -0.000193   0.000323   0.000016   0.000011  -0.000039   0.000001
     7  H    0.000389  -0.000057  -0.000008  -0.000019   0.000022  -0.000001
     8  H    0.001031  -0.000019  -0.000001  -0.000001   0.000002   0.000000
     9  H   -0.000000   0.000001  -0.000001   0.000000   0.000000  -0.000000
    10  C   -0.000044   0.000554  -0.000106   0.000379  -0.000076   0.000002
    11  H   -0.000002  -0.000053   0.000016   0.000198  -0.000009   0.000000
    12  H   -0.000005   0.000060   0.000002   0.000009   0.000000  -0.000000
    13  C   -0.023542  -0.044500   0.007183  -0.007058  -0.013993  -0.000356
    14  H    0.001726  -0.009306   0.000317   0.003847   0.000139   0.000152
    15  H    0.023454   0.002777  -0.000543  -0.000033   0.000560   0.000204
    16  N   -0.000265   0.004657   0.001253  -0.000605   0.000152  -0.000008
    17  N   -0.036598   0.340636  -0.042771  -0.038879  -0.062997  -0.001154
    18  C    0.000009  -0.000111  -0.000021  -0.000004   0.000001   0.000000
    19  H   -0.000001   0.000012   0.000009  -0.000001  -0.000000  -0.000000
    20  H    0.000045  -0.000090  -0.000033  -0.000007  -0.000000   0.000000
    21  H   -0.000003   0.000016   0.000002   0.000001   0.000000  -0.000000
    22  C    0.356166  -0.057148  -0.001910   0.007318  -0.019390  -0.002541
    23  H   -0.047909   0.005126   0.001056  -0.000159  -0.000184   0.000084
    24  H   -0.020578  -0.013434  -0.000448   0.000307   0.002303   0.003749
    25  H    0.612094   0.002152  -0.000462  -0.000485   0.001691  -0.000384
    26  C    0.002152   4.894436   0.382775   0.387424   0.349917  -0.032428
    27  H   -0.000462   0.382775   0.601171  -0.034103  -0.052914  -0.008299
    28  H   -0.000485   0.387424  -0.034103   0.583008  -0.048927   0.004881
    29  C    0.001691   0.349917  -0.052914  -0.048927   5.197639   0.381356
    30  H   -0.000384  -0.032428  -0.008299   0.004881   0.381356   0.557676
    31  H   -0.000130  -0.026684   0.002791  -0.003607   0.358768  -0.028434
    32  H    0.001068  -0.040445   0.004797  -0.001601   0.386958  -0.030586
    33  C    0.000003  -0.001431   0.000112   0.000473   0.000039  -0.000000
    34  H    0.000001  -0.000118   0.000471  -0.000205   0.000004   0.000000
    35  H    0.000000  -0.000883  -0.000086   0.004096  -0.000027   0.000001
    36  C   -0.000000   0.000142   0.000017   0.000009  -0.000001   0.000000
    37  H    0.000000  -0.000000  -0.000001  -0.000004   0.000000   0.000000
    38  H   -0.000000  -0.000002   0.000000   0.000002   0.000000  -0.000000
    39  H   -0.000000   0.000002   0.000001   0.000002   0.000000  -0.000000
              31         32         33         34         35         36
     1  C   -0.000001   0.000025  -0.000192   0.000003  -0.000036   0.000018
     2  H    0.000000  -0.000000  -0.000004  -0.000000   0.000000   0.000000
     3  H   -0.000000   0.000002   0.000004  -0.000000   0.000001  -0.000000
     4  H   -0.000000   0.000002  -0.000006   0.000000  -0.000008  -0.000001
     5  C    0.000015  -0.000109   0.003837  -0.000086   0.000197   0.000145
     6  C    0.000000   0.000004   0.000280   0.000010   0.000008  -0.000045
     7  H   -0.000000   0.000004  -0.000047   0.000002  -0.000004   0.000012
     8  H   -0.000000  -0.000002   0.000004  -0.000000  -0.000000   0.000000
     9  H   -0.000000  -0.000000  -0.000032  -0.000001  -0.000000   0.000004
    10  C    0.000003  -0.000011  -0.048307   0.007347  -0.009696  -0.012279
    11  H    0.000000  -0.000002  -0.008549   0.000376   0.006984  -0.001070
    12  H    0.000000  -0.000000  -0.000592  -0.000635  -0.000036   0.001975
    13  C    0.000375   0.006961   0.000392  -0.000089   0.000048  -0.000016
    14  H   -0.000636   0.002916  -0.000051   0.000020  -0.000020  -0.000008
    15  H   -0.000190   0.001207   0.000017   0.000001  -0.000001  -0.000000
    16  N    0.000009  -0.000018   0.340371  -0.045196  -0.038264  -0.063471
    17  N    0.005143  -0.013284   0.001034   0.000818  -0.000129  -0.000077
    18  C   -0.000000   0.000000  -0.055718  -0.001381   0.007008  -0.023336
    19  H    0.000000  -0.000000  -0.014057  -0.000171   0.000389   0.000192
    20  H   -0.000000   0.000000   0.005406   0.001097  -0.000178  -0.000171
    21  H    0.000000  -0.000000   0.001460  -0.000547  -0.000457   0.002198
    22  C    0.001121  -0.001892  -0.000047  -0.000018  -0.000005   0.000002
    23  H   -0.000001  -0.000059  -0.000004  -0.000010  -0.000000   0.000000
    24  H   -0.000428   0.000859  -0.000001   0.000006  -0.000000  -0.000000
    25  H   -0.000130   0.001068   0.000003   0.000001   0.000000  -0.000000
    26  C   -0.026684  -0.040445  -0.001431  -0.000118  -0.000883   0.000142
    27  H    0.002791   0.004797   0.000112   0.000471  -0.000086   0.000017
    28  H   -0.003607  -0.001601   0.000473  -0.000205   0.004096   0.000009
    29  C    0.358768   0.386958   0.000039   0.000004  -0.000027  -0.000001
    30  H   -0.028434  -0.030586  -0.000000   0.000000   0.000001   0.000000
    31  H    0.581915  -0.029616   0.000001  -0.000002  -0.000003   0.000000
    32  H   -0.029616   0.551842   0.000001   0.000001   0.000001   0.000000
    33  C    0.000001   0.000001   4.897909   0.382900   0.386739   0.351139
    34  H   -0.000002   0.000001   0.382900   0.606876  -0.034924  -0.055113
    35  H   -0.000003   0.000001   0.386739  -0.034924   0.583267  -0.045389
    36  C    0.000000   0.000000   0.351139  -0.055113  -0.045389   5.201472
    37  H   -0.000000   0.000000  -0.025008   0.002491  -0.003064   0.354748
    38  H    0.000000  -0.000000  -0.034006  -0.008053   0.004955   0.384470
    39  H    0.000000  -0.000000  -0.040930   0.004997  -0.002395   0.386860
              37         38         39
     1  C   -0.000000  -0.000000   0.000018
     2  H   -0.000000   0.000000   0.000000
     3  H    0.000000  -0.000000  -0.000000
     4  H   -0.000000   0.000000   0.000001
     5  C    0.000010  -0.000030  -0.000145
     6  C    0.000000  -0.000000   0.000007
     7  H   -0.000000  -0.000001   0.000003
     8  H   -0.000000  -0.000000  -0.000000
     9  H   -0.000000   0.000000  -0.000007
    10  C    0.000319  -0.000540   0.006505
    11  H   -0.000195   0.000079   0.001082
    12  H   -0.000379   0.000404   0.003346
    13  C    0.000001   0.000001  -0.000005
    14  H    0.000000  -0.000000  -0.000002
    15  H    0.000000  -0.000000  -0.000000
    16  N    0.005151  -0.002392  -0.010908
    17  N    0.000003  -0.000003  -0.000013
    18  C    0.001264  -0.004438  -0.001235
    19  H   -0.000383   0.004522   0.000428
    20  H    0.000001   0.000095  -0.000040
    21  H   -0.000141  -0.000336   0.000566
    22  C   -0.000000  -0.000000   0.000000
    23  H   -0.000000   0.000000   0.000000
    24  H    0.000000  -0.000000  -0.000000
    25  H    0.000000  -0.000000  -0.000000
    26  C   -0.000000  -0.000002   0.000002
    27  H   -0.000001   0.000000   0.000001
    28  H   -0.000004   0.000002   0.000002
    29  C    0.000000   0.000000   0.000000
    30  H    0.000000  -0.000000  -0.000000
    31  H   -0.000000   0.000000   0.000000
    32  H    0.000000  -0.000000  -0.000000
    33  C   -0.025008  -0.034006  -0.040930
    34  H    0.002491  -0.008053   0.004997
    35  H   -0.003064   0.004955  -0.002395
    36  C    0.354748   0.384470   0.386860
    37  H    0.584665  -0.028199  -0.029448
    38  H   -0.028199   0.556995  -0.031606
    39  H   -0.029448  -0.031606   0.554192
 Mulliken charges:
               1
     1  C   -0.463403
     2  H    0.142241
     3  H    0.142292
     4  H    0.138729
     5  C    0.098142
     6  C   -0.472693
     7  H    0.181310
     8  H    0.132429
     9  H    0.134199
    10  C   -0.148548
    11  H    0.126455
    12  H    0.118538
    13  C   -0.148536
    14  H    0.126609
    15  H    0.122554
    16  N   -0.335626
    17  N   -0.333177
    18  C   -0.319532
    19  H    0.140619
    20  H    0.151143
    21  H    0.137285
    22  C   -0.314630
    23  H    0.145438
    24  H    0.140547
    25  H    0.134042
    26  C   -0.145805
    27  H    0.139779
    28  H    0.143727
    29  C   -0.481265
    30  H    0.156115
    31  H    0.139591
    32  H    0.160977
    33  C   -0.143140
    34  H    0.139129
    35  H    0.141914
    36  C   -0.482426
    37  H    0.138168
    38  H    0.158082
    39  H    0.158725
 Sum of Mulliken charges =  -0.00000
 Mulliken charges with hydrogens summed into heavy atoms:
               1
     1  C   -0.040141
     5  C    0.098142
     6  C   -0.024754
    10  C    0.096445
    13  C    0.100626
    16  N   -0.335626
    17  N   -0.333177
    18  C    0.109515
    22  C    0.105398
    26  C    0.137702
    29  C   -0.024581
    33  C    0.137903
    36  C   -0.027451
 Electronic spatial extent (au):  <R**2>=           2821.5680
 Charge=             -0.0000 electrons
 Dipole moment (field-independent basis, Debye):
    X=             -0.0328    Y=             -0.2854    Z=             -0.6120  Tot=              0.6761
 Quadrupole moment (field-independent basis, Debye-Ang):
   XX=            -84.6616   YY=            -85.3764   ZZ=            -85.3374
   XY=              0.0975   XZ=             -0.0483   YZ=              0.3513
 Traceless Quadrupole moment (field-independent basis, Debye-Ang):
   XX=              0.4635   YY=             -0.2513   ZZ=             -0.2123
   XY=              0.0975   XZ=             -0.0483   YZ=              0.3513
 Octapole moment (field-independent basis, Debye-Ang**2):
  XXX=              1.7493  YYY=            -11.5768  ZZZ=             -0.2986  XYY=              0.1405
  XXY=              1.0313  XXZ=              7.3227  XZZ=             -0.9148  YZZ=             -5.9345
  YYZ=              2.4950  XYZ=             -0.3988
 Hexadecapole moment (field-independent basis, Debye-Ang**3):
 XXXX=          -2057.9426 YYYY=          -1282.4583 ZZZZ=           -598.9973 XXXY=              0.2849
 XXXZ=              0.7098 YYYX=              0.2309 YYYZ=              3.9777 ZZZX=             -0.0257
 ZZZY=              2.6381 XXYY=           -535.3955 XXZZ=           -436.2898 YYZZ=           -318.8497
 XXYZ=            -11.4669 YYXZ=              2.3184 ZZXY=              1.5324
 N-N= 9.650379806334D+02 E-N=-3.191076422998D+03  KE= 5.402884372675D+02
 D1PCM: PCM CHGder 1st derivatives, ID1Alg=3 FixD1E=F DoIter=F DoCFld=F I1PDM=0.
 Calling FoFJK, ICntrl=      2127 FMM=F ISym2X=0 I1Cent= 0 IOpClX= 0 NMat=1 NMatS=1 NMatT=0.
 ***** Axes restored to original set *****
 -------------------------------------------------------------------
 Center     Atomic                   Forces (Hartrees/Bohr)
 Number     Number              X              Y              Z
 -------------------------------------------------------------------
      1        6           0.008386288   -0.025898840    0.000262712
      2        1           0.004257119    0.012328301    0.013997148
      3        1           0.004367412    0.012211267   -0.014001650
      4        1          -0.019177707    0.004574762   -0.000033531
      5        6           0.000137846    0.010374621    0.000300119
      6        6          -0.023442153   -0.000832095   -0.002404506
      7        1           0.007991671   -0.008938966   -0.002795715
      8        1           0.009381984    0.009588017   -0.014160225
      9        1           0.009874629    0.009146519    0.013595973
     10        6           0.018330658   -0.014207721   -0.031551527
     11        1          -0.018222368    0.001987573    0.000327549
     12        1           0.001188940    0.016580758    0.017735058
     13        6           0.018222835   -0.012679840    0.033300100
     14        1          -0.018773488    0.004145253   -0.000459825
     15        1           0.000802157    0.015308426   -0.015256234
     16        7          -0.013095353    0.001476750    0.034720017
     17        7          -0.007424965    0.001074693   -0.035508739
     18        6          -0.013238983   -0.008700053   -0.019532994
     19        1           0.009454839   -0.010380320    0.008034129
     20        1           0.017258030   -0.004273793   -0.006388933
     21        1           0.010197737    0.012292182    0.013081358
     22        6          -0.008694660   -0.004995007    0.021009426
     23        1           0.019768365   -0.002946570    0.003512527
     24        1           0.006258632   -0.012043593   -0.011304749
     25        1           0.007614481    0.010813035   -0.016302717
     26        6           0.012255436    0.019032434   -0.022911319
     27        1           0.003867347   -0.017532528    0.006620232
     28        1          -0.009698405    0.001515413    0.013373116
     29        6          -0.006145152   -0.011886727    0.019427799
     30        1           0.003939687   -0.007589200   -0.014900000
     31        1          -0.017728176   -0.005792353   -0.007473063
     32        1          -0.002293011    0.014504859   -0.008271343
     33        6           0.019077822    0.019588675    0.022155246
     34        1           0.002009229   -0.018471112   -0.005840957
     35        1          -0.013906098    0.001039947   -0.009651333
     36        6          -0.014162536   -0.013296848   -0.016357011
     37        1          -0.014513393   -0.006350553    0.012570032
     38        1           0.006875614   -0.006241611    0.013689227
     39        1          -0.001002310    0.015474247    0.007394605
 -------------------------------------------------------------------
 Cartesian Forces:  Max     0.035508739 RMS     0.013444397

 GradGradGradGradGradGradGradGradGradGradGradGradGradGradGradGradGradGrad
 Berny optimization.
 FormGI is forming the generalized inverse of G from B-inverse, IUseBI=4.
 Internal  Forces:  Max     0.090743019 RMS     0.015515661
 Search for a local minimum.
 Step number   1 out of a maximum of  210
 All quantities printed in internal units (Hartrees-Bohrs-Radians)
 Mixed Optimization -- RFO/linear search
 Second derivative matrix not updated -- first step.
 ITU=  0
     Eigenvalues ---    0.00237   0.00237   0.00237   0.00237   0.00237
     Eigenvalues ---    0.00237   0.00766   0.00766   0.00766   0.00766
     Eigenvalues ---    0.00766   0.00766   0.03190   0.03191   0.04502
     Eigenvalues ---    0.04502   0.04502   0.04502   0.04739   0.04739
     Eigenvalues ---    0.04739   0.05496   0.05496   0.05496   0.05496
     Eigenvalues ---    0.05720   0.05720   0.05720   0.05720   0.05720
     Eigenvalues ---    0.05720   0.05720   0.05720   0.07537   0.07537
     Eigenvalues ---    0.07537   0.07537   0.08860   0.08860   0.08860
     Eigenvalues ---    0.08860   0.12453   0.12453   0.12453   0.12453
     Eigenvalues ---    0.14387   0.14387   0.16000   0.16000   0.16000
     Eigenvalues ---    0.16000   0.16000   0.16000   0.16000   0.16000
     Eigenvalues ---    0.16000   0.16000   0.16000   0.16000   0.16000
     Eigenvalues ---    0.16000   0.16000   0.16000   0.16000   0.16000
     Eigenvalues ---    0.16272   0.16273   0.16274   0.16277   0.21985
     Eigenvalues ---    0.21985   0.21985   0.21985   0.28519   0.28519
     Eigenvalues ---    0.28519   0.28519   0.28519   0.28519   0.35740
     Eigenvalues ---    0.35740   0.35740   0.35740   0.35740   0.35740
     Eigenvalues ---    0.37230   0.37230   0.37230   0.37230   0.37230
     Eigenvalues ---    0.37230   0.37230   0.37230   0.37230   0.37230
     Eigenvalues ---    0.37230   0.37230   0.37230   0.37230   0.37230
     Eigenvalues ---    0.37230   0.37230   0.37230   0.37230   0.37230
     Eigenvalues ---    0.37230   0.37230   0.37230   0.37230   0.37230
     Eigenvalues ---    0.37230
 RFO step:  Lambda=-1.41991494D-01 EMin= 2.36824181D-03
 Linear search not attempted -- first point.
 Maximum step size (   0.300) exceeded in Quadratic search.
    -- Step size scaled by   0.549
 Iteration  1 RMS(Cart)=  0.22397943 RMS(Int)=  0.00620386
 Iteration  2 RMS(Cart)=  0.02428432 RMS(Int)=  0.00038187
 Iteration  3 RMS(Cart)=  0.00037785 RMS(Int)=  0.00036300
 Iteration  4 RMS(Cart)=  0.00000016 RMS(Int)=  0.00036300
 Variable       Old X    -DE/DX   Delta X   Delta X   Delta X     New X
[...]
 6,0.00001189,-0.00040204,0.00033873,0.00001383,0.00000803,-0.00004967,
 0.00002762,0.00000278,-0.00000285,0.00001081,-0.00001293,0.00001231,-0
 .00001352,-0.00000594,-0.00000996,-0.00000579,-0.00260573,0.00030480,-
 0.00000004,-0.00033726,-0.00051848,0.00037098,0.00032802,-0.00008980,0
 .00009120,0.00006484,0.00003209,0.00004704,-0.00001285,0.00001520,0.00
 001154,-0.00001214,-0.00000594,-0.00002033,-0.01105786,0.00265017,-0.0
 0135936,-0.00006074,-0.00003711,-0.00005262,-0.00109633,-0.00073454,0.
 00106888,0.00002635,0.00069951,-0.00011416,-0.00017891,0.00039883,-0.0
 0008151,0.00016882,0.00035908,-0.00001520,-0.00001731,-0.00002295,0.00
 001200,-0.00000576,-0.00000256,0.00000496,0.00000357,-0.00000094,0.000
 00050,0.00000095,0.00000650,-0.00001383,0.00008363,0.00006181,-0.00008
 256,-0.00002463,-0.00000195,0.00002150,0.00007061,-0.00000456,0.000045
 72,-0.00000897,-0.00000374,0.00000097,-0.00001191,0.00000115,0.0000094
 2,-0.00000403,-0.00002047,-0.00001850,-0.00000160,0.00001944,-0.000016
 70,0.08508448,-0.08834081,0.02757100,0.02822547,-0.01024408,0.00922032
 ,-0.08934091,0.08982180,-0.00002666,-0.00001810,0.00000552,-0.00001095
 ,-0.00001362,-0.00000656,0.00000866,0.00000082,-0.00001375,0.00000108,
 0.00001504,0.00001059,0.00017911,-0.00016876,0.00005754,-0.00000526,-0
 .00001216,-0.00007958,-0.00002786,-0.00000705,0.00003704,0.00001251,0.
 00002236,-0.00000558,-0.00001204,0.00000055,0.00000273,0.00084101,-0.0
 0122624,0.00029349,-0.00014660,0.00013596,0.00019921,-0.00014691,0.000
 23129,0.00005640,0.00015624,-0.00002444,0.00003274,-0.00005984,0.00001
 270,-0.00002644,-0.00003052,-0.00000336,-0.00001326,0.02479687,-0.0085
 7994,0.00277313,-0.00009027,0.00000635,-0.00007084,0.00293540,0.002404
 19,-0.00142839,-0.00018977,0.00008130,-0.00016503,0.00097961,-0.000217
 24,0.00016047,0.00090755,-0.00008749,0.00011216,-0.00002075,-0.0000060
 2,0.00000597,-0.00000416,-0.00000560,0.00000663,0.00000038,0.00000138,
 0.00000522,0.00000070,0.00000487,-0.00001434,0.00006390,0.00005812,-0.
 00005938,-0.00001959,0.00000211,0.00002735,0.00007118,-0.00002380,0.00
 004734,-0.00000842,-0.00001068,-0.00000145,-0.00000444,0.00000283,0.00
 000751,-0.00000337,-0.00000644,-0.00000893,-0.00000332,0.00000957,-0.0
 0001543,-0.07099432,0.02980657,-0.07144967,0.00289026,-0.00089619,0.00
 094709,0.06707319,-0.03171478,0.08465237,-0.00025085,-0.00004999,0.000
 22222,0.00000491,0.00000743,-0.00002654,0.00003875,-0.00014115,0.00003
 270,0.00004027,-0.00000584,0.00001482,0.00049463,-0.00030776,-0.000125
 68,0.00010419,0.00001284,0.00002928,0.00001742,0.00002685,-0.00000604,
 -0.00005986,-0.00003758,0.00002827,0.00001202,-0.00000080,-0.00003078,
 -0.00040179,0.00344695,0.00098701,-0.00005437,-0.00046151,-0.00014057,
 -0.00009117,-0.00032549,-0.00022771,-0.00020900,-0.00008541,-0.0002174
 2,-0.00003244,0.00001625,-0.00003153,0.00000204,0.00000575,0.00012320,
 0.00204189,0.00290980,0.02988602,0.00004538,0.00008530,0.00021824,0.00
 410239,-0.00051007,0.00311203,-0.00020374,0.00024283,0.00008038,-0.000
 69955,0.00022764,-0.00039186,-0.00003458,-0.00061045,-0.00095738,0.000
 14745,0.00002879,-0.00007196,0.00000020,-0.00001438,-0.00000424,-0.000
 01294,0.00001896,0.00001540,-0.00002158,-0.00002112,0.00007640,-0.0000
 7017,-0.00009236,0.00006150,-0.00000674,0.00003769,0.00003304,-0.00015
 072,-0.00015466,-0.00011521,-0.00003791,0.00002585,0.00002221,0.000024
 59,-0.00000969,0.00002386,0.00002020,0.00002618,0.00002264,0.00000285,
 -0.00002024,0.00001505,-0.08943764,-0.00559695,-0.02392858,0.00067922,
 0.00041112,-0.00084484,-0.00477227,-0.00810978,-0.02938472,0.57725437,
 -0.00007040,-0.00004526,0.00016970,-0.00002981,-0.00006450,-0.00002547
 ,0.00002286,-0.00006514,-0.00003035,0.00001500,0.00000222,0.00001316,-
 0.00008392,-0.00061504,-0.00031437,0.00000553,0.00003371,0.00002615,0.
 00004594,-0.00000283,-0.00004393,0.00000002,-0.00002333,0.00000064,-0.
 00003977,-0.00000381,-0.00000872,0.00141221,0.00373284,0.00265894,0.00
 013476,0.00000511,0.00027237,-0.00056007,0.00027720,-0.00104173,0.0000
 4778,0.00020068,-0.00018230,-0.00003723,-0.00000770,-0.00001133,-0.000
 04304,-0.00003819,-0.00000869,0.00070882,0.00546265,0.01403254,0.00010
 466,-0.00004488,0.00012311,0.00039743,-0.00100559,0.00001464,-0.000348
 79,-0.00005676,-0.00019896,-0.00016145,0.00033523,0.00009928,-0.000086
 78,0.00022094,-0.00005922,0.00005592,0.00001505,-0.00003085,-0.0000054
 3,-0.00000020,-0.00000044,-0.00000508,0.00000014,0.00000181,-0.0000092
 4,-0.00000677,0.00003573,-0.00002331,-0.00004418,0.00004971,-0.0000253
 5,0.00001088,0.00002418,-0.00007740,-0.00010523,-0.00006425,-0.0000231
 7,-0.00000229,0.00000860,0.00000743,0.00000168,0.00001152,0.00001377,0
 .00001080,0.00001297,0.00000058,0.00000123,-0.00000320,-0.00614527,-0.
 09334085,-0.02609725,-0.00707833,-0.00839281,-0.03390379,0.00285199,0.
 00378633,0.01226274,-0.00071629,0.57346429,0.00009126,0.00001746,-0.00
 003333,-0.00000521,-0.00001608,0.00001077,-0.00000673,0.00004986,-0.00
 002426,-0.00002203,0.00000689,-0.00000999,-0.00021315,-0.00027215,-0.0
 0006546,-0.00004511,-0.00001219,-0.00000660,-0.00003385,-0.00000640,0.
 00002367,0.00001656,0.00003938,-0.00001927,-0.00001109,-0.00001355,0.0
 0001632,0.00079449,-0.00152325,0.00043579,-0.00034572,0.00036691,0.000
 10199,-0.00013801,0.00090852,-0.00056322,0.00012693,0.00001539,0.00012
 221,0.00003255,-0.00001730,0.00003585,-0.00000271,0.00000044,-0.000084
 70,0.00945583,0.00169403,-0.02789030,-0.00005532,-0.00003706,-0.000179
 30,-0.00025327,0.00137664,0.00072682,0.00019689,-0.00038889,0.00019433
 ,-0.00035066,-0.00002001,-0.00010418,0.00076103,-0.00071580,-0.0003614
 0,-0.00010829,-0.00002990,0.00007598,0.00000221,0.00000758,0.00000375,
 0.00001235,-0.00001175,-0.00001069,0.00001057,0.00001844,-0.00006095,0
 .00008700,0.00008395,-0.00005984,0.00001290,-0.00002547,-0.00002496,0.
 00010583,0.00011454,0.00005861,0.00001617,-0.00001272,-0.00001173,-0.0
 0001036,0.00000413,-0.00001943,-0.00001732,-0.00001747,-0.00001593,0.0
 0000014,0.00000726,-0.00000308,-0.02596743,-0.02738690,-0.16322926,-0.
 00227622,-0.00203284,-0.00575404,-0.00326669,-0.00424257,-0.01221642,-
 0.01001163,-0.02132930,0.46902839,-0.00000862,0.00000501,0.00000604,0.
 00000067,0.00000857,-0.00000182,-0.00000174,-0.00000913,0.00000946,0.0
 0000464,-0.00000063,-0.00000017,0.00000785,0.00002251,0.00000112,-0.00
 000455,-0.00000871,0.00000533,0.00000803,0.00000039,-0.00001464,-0.000
 00400,-0.00001184,0.00001667,0.00000796,0.00001530,0.00000020,0.000031
 87,0.00009355,-0.00023096,0.00003414,-0.00000463,0.00004385,-0.0000007
 7,0.00008515,-0.00004179,-0.00000900,-0.00000674,-0.00001812,-0.000003
 87,0.00000299,-0.00000675,-0.00000128,-0.00000032,0.00001867,0.0005989
 0,-0.00010087,-0.00082065,0.00002020,0.00000097,0.00007907,-0.00005382
 ,-0.00027852,-0.00030748,-0.00001367,-0.00004111,-0.00003642,0.0001996
 0,-0.00002804,0.00012489,0.00031916,0.00016872,0.00003256,0.00002188,0
 .00000654,-0.00002997,-0.00000012,-0.00000058,-0.00000164,-0.00000400,
 0.00000390,0.00000189,0.00000006,-0.00000529,0.00001700,-0.00001350,-0
 .00002526,-0.00002439,-0.00000457,0.00000526,0.00000310,-0.00001102,-0
 .00001600,-0.00000383,-0.00000200,0.00000002,0.00000345,0.00000082,-0.
 00000096,0.00000652,0.00000557,0.00000472,0.00000251,-0.00000028,-0.00
 000026,-0.00000124,0.00421240,0.00290790,-0.00453547,0.00021612,0.0002
 9435,0.00046711,0.00049924,0.00019873,0.00059264,-0.19182558,-0.074769
 06,0.10770139,0.20552305,0.00000238,0.00002038,-0.00004767,0.00000584,
 0.00001932,0.00000151,-0.00000572,0.00000793,0.00001468,0.00000274,0.0
 0000021,0.00000092,0.00007931,0.00033459,0.00006635,-0.00000094,-0.000
 02320,0.00000547,-0.00000648,0.00000254,0.00000202,-0.00000960,-0.0000
 0099,0.00001290,0.00001321,0.00001035,0.00000227,-0.00031340,-0.000488
 56,-0.00033518,-0.00010423,0.00002170,-0.00008075,0.00038093,0.0002380
 4,0.00019039,-0.00003402,-0.00010311,0.00006393,0.00000200,-0.00000041
 ,-0.00000304,0.00000861,0.00001430,0.00003899,-0.00005390,0.00041836,-
 0.00187358,-0.00000283,0.00001691,-0.00001362,-0.00014969,0.00016183,-
 0.00012952,0.00003112,0.00004919,0.00005886,-0.00005296,0.00000618,-0.
 00001181,-0.00003957,-0.00010531,0.00003153,-0.00000380,0.00000423,-0.
 00000832,0.00000227,0.00000019,-0.00000143,-0.00000176,0.00000204,0.00
 000136,0.00000257,-0.00000097,-0.00000049,-0.00000273,-0.00000350,-0.0
 0000720,0.00000386,0.00000200,-0.00000124,0.00000245,0.00000846,0.0000
 0371,0.00000307,0.00000281,0.00000165,-0.00000021,-0.00000049,0.000000
 43,-0.00000022,0.00000124,-0.00000035,-0.00000098,-0.00000177,0.000000
 10,0.00723097,0.00237790,-0.00467082,0.00030555,0.00035513,0.00054744,
 -0.00001002,0.00016227,0.00041874,-0.07492788,-0.08786478,0.05641467,0
 .08289288,0.09081766,0.00012489,0.00002564,-0.00014204,-0.00000052,-0.
 00000118,0.00001478,-0.00001657,0.00008050,-0.00002282,-0.00001629,-0.
 00000169,-0.00000358,-0.00008631,0.00031311,0.00016185,-0.00004204,-0.
 00000145,-0.00004641,-0.00002309,-0.00001260,0.00001834,0.00003797,0.0
 0003224,-0.00002155,-0.00000002,-0.00000063,0.00001454,-0.00027197,-0.
 00273515,-0.00023774,-0.00005976,0.00012858,0.00003071,0.00019819,0.00
 022057,0.00062751,0.00004891,-0.00001796,0.00017269,0.00002957,-0.0000
 1054,0.00002748,0.00001626,0.00001386,-0.00005646,-0.00061330,-0.00133
 784,-0.00841315,-0.00003059,-0.00002799,-0.00015731,-0.00221412,0.0006
 6227,-0.00061935,0.00009575,-0.00012222,0.00004631,0.00042662,-0.00008
 941,0.00015497,0.00024722,0.00023853,0.00067825,-0.00008269,-0.0000178
 0,0.00006624,0.00000292,0.00000848,0.00000114,0.00000859,-0.00001067,-
 0.00000860,0.00000841,0.00001500,-0.00005050,0.00000974,0.00004068,0.0
 0002869,0.00001261,-0.00001939,-0.00002284,0.00009210,0.00009386,0.000
 04191,0.00003102,-0.00000392,-0.00002098,-0.00001337,0.00000364,-0.000
 02395,-0.00001358,-0.00001619,-0.00001029,-0.00000162,0.00000783,-0.00
 000159,0.02558062,0.01414700,-0.01453490,0.00013492,-0.00049248,0.0013
 0222,-0.00051980,0.00058638,0.00113514,0.10706898,0.05602364,-0.128134
 58,-0.11763765,-0.06092360,0.13870532,0.00001405,0.00000122,-0.0000327
 3,-0.00000433,-0.00000381,0.00000439,0.00000232,0.00001862,-0.00001155
 ,0.00000875,-0.00000479,0.00000776,-0.00002882,0.00001882,0.00004539,-
 0.00002007,0.00001062,-0.00001911,0.00000831,-0.00000708,-0.00000553,0
 .00001919,0.00000425,-0.00000460,0.00000104,0.00000448,0.00000605,0.00
 003208,-0.00033962,-0.00012258,0.00003731,-0.00005869,0.00004119,0.000
 03309,0.00006713,0.00004938,-0.00002157,0.00003056,0.00003349,0.000018
 18,-0.00000250,0.00001181,0.00000769,-0.00000217,-0.00001899,0.0006054
 2,-0.00001259,-0.00043956,0.00003940,-0.00002170,-0.00000058,-0.000865
 17,0.00005921,0.00002466,-0.00004980,-0.00008276,-0.00006624,0.0003360
 3,-0.00008136,0.00020579,-0.00004619,0.00033752,0.00110051,-0.00002007
 ,-0.00000166,0.00001393,0.00000118,0.00000546,-0.00000091,0.00000371,-
 0.00000639,-0.00000648,0.00000295,0.00000171,-0.00000623,-0.00002708,-
 0.00000236,0.00002141,0.00001055,-0.00001055,-0.00001223,0.00000389,0.
 00002131,-0.00000090,0.00000732,0.00000307,-0.00000562,0.00000117,0.00
 000013,-0.00000968,-0.00000286,0.00000120,0.00000269,0.00000333,-0.000
 00648,0.00000663,-0.00379627,0.00089537,-0.00121957,0.00014363,-0.0003
 8383,-0.00016722,0.00131730,-0.00064558,-0.00077417,-0.24605591,0.0855
 8141,-0.07552534,-0.02026568,0.00968991,-0.00812385,0.26685584,-0.0000
 0214,-0.00000350,-0.00000115,0.00001568,0.00000380,0.00000044,-0.00000
 522,0.00000157,0.00000755,-0.00001271,0.00000086,-0.00001392,-0.000038
 24,0.00001439,-0.00002045,0.00001524,0.00000555,0.00003437,-0.00001125
 ,0.00000517,0.00001379,-0.00001435,0.00000329,-0.00001108,-0.00000557,
 -0.00002212,-0.00000647,0.00022935,-0.00001454,0.00025174,-0.00014279,
 0.00001316,-0.00011496,0.00000111,-0.00005964,-0.00009077,-0.00000365,
 -0.00001357,-0.00000232,0.00000043,-0.00000329,-0.00000188,0.00000458,
 0.00000151,-0.00000282,0.00027840,-0.00000394,0.00059142,-0.00002551,0
 .00001101,-0.00002354,0.00085218,0.00056842,0.00039827,0.00003957,-0.0
 0018905,-0.00008150,-0.00017404,-0.00012507,-0.00017523,-0.00023021,-0
 .00020180,-0.00040407,0.00000099,0.00000022,0.00000810,-0.00000082,-0.
 00000303,0.00000108,0.00000114,0.00000040,0.00000083,-0.00000164,0.000
 00068,-0.00000405,0.00000897,0.00001068,0.00001084,0.00000310,0.000000
 21,-0.00000250,-0.00000315,0.00000582,0.00000412,0.00000039,-0.0000016
 4,-0.00000112,-0.00000018,0.00000018,-0.00000041,-0.00000248,-0.000001
 47,-0.00000157,0.00000004,-0.00000011,0.00000055,-0.00878984,0.0032281
 5,-0.00191521,-0.00036316,0.00056918,0.00066505,-0.00031113,0.00076573
 ,-0.00216135,0.08555574,-0.08826228,0.03248839,-0.01174008,0.00508589,
 -0.00556695,-0.09463759,0.08957064,-0.00000823,-0.00000241,-0.00000887
 ,0.00000058,0.00000350,0.00000350,0.00000456,0.00000295,-0.00000290,0.
 00001453,-0.00000973,0.00000638,0.00003475,0.00000104,0.00003752,-0.00
 002265,0.00001939,-0.00001393,0.00002138,-0.00000819,-0.00002334,0.000
 01849,-0.00001096,0.00000683,0.00000894,0.00001475,0.00000514,0.000024
 23,0.00019373,-0.00015644,0.00005625,-0.00022430,0.00006025,-0.0000410
 0,0.00014538,-0.00008178,-0.00007228,0.00000445,0.00001088,0.00002272,
 0.00000015,0.00000836,0.00001129,-0.00000037,0.00000038,0.00081760,0.0
 0002254,0.00229227,0.00007897,-0.00001415,0.00006307,0.00011486,0.0003
 4328,-0.00011393,0.00000444,-0.00026609,-0.00019346,0.00020512,-0.0000
 5370,0.00014541,0.00106445,0.00009081,-0.00031086,0.00000543,0.0000056
 8,-0.00000588,0.00000246,0.00000566,-0.00000388,0.00000084,-0.00000359
 ,-0.00000602,0.00000136,-0.00000302,0.00000931,-0.00005457,-0.00002469
 ,0.00003866,0.00001200,-0.00000589,-0.00001358,-0.00002391,-0.00000285
 ,-0.00001705,0.00000548,0.00000772,-0.00000411,0.00000499,-0.00000174,
 -0.00000763,0.00000229,0.00000730,0.00000845,0.00000430,-0.00001052,0.
 00001099,-0.03085383,0.01306476,-0.00945117,0.00071997,-0.00001724,0.0
 0142469,-0.00100868,-0.00204763,-0.00645834,-0.07519291,0.03278955,-0.
 07784388,0.01595099,-0.00846342,0.00672594,0.08364505,-0.03459704,0.08
 300743,0.00003728,0.00000114,-0.00001630,0.00001031,-0.00001119,0.0000
 0305,-0.00001130,0.00001923,-0.00000791,-0.00001930,0.00000131,-0.0000
 1762,-0.00017561,-0.00007097,-0.00002232,-0.00000413,0.00001722,0.0000
 3373,-0.00000271,0.00000051,0.00000325,0.00000198,0.00000606,-0.000014
 95,-0.00001241,-0.00002201,-0.00000137,0.00062144,0.00021352,0.0004143
 9,-0.00015231,0.00007471,-0.00009098,-0.00026606,-0.00027824,0.0001989
 0,0.00003651,0.00005214,-0.00000746,-0.00000314,-0.00000995,0.00000148
 ,-0.00000540,-0.00000878,-0.00003195,0.00014868,0.00044171,-0.00008063
 ,-0.00000384,-0.00001412,-0.00002579,-0.00013175,0.00023750,0.00012070
 ,-0.00003453,-0.00011838,-0.00008095,0.00001211,-0.00004452,0.00000561
 ,0.00001110,0.00004256,-0.00005379,-0.00000799,-0.00000223,0.00001546,
 -0.00000144,0.00000029,0.00000114,0.00000182,-0.00000268,-0.00000166,-
 0.00000097,0.00000244,-0.00000807,0.00000196,0.00000964,0.00001283,-0.
 00000010,-0.00000365,-0.00000307,0.00000946,0.00000463,0.00000732,0.00
 000435,-0.00000372,-0.00000389,-0.00000188,0.00000164,-0.00000449,-0.0
 0000192,-0.00000200,-0.00000040,-0.00000051,0.00000225,-0.00000067,-0.
 00094424,-0.00579604,-0.00000401,0.00098998,-0.00019828,-0.00135967,0.
 00011268,-0.00039111,0.00045363,-0.05060398,-0.00106694,-0.00075796,0.
 00051588,-0.02493873,-0.00440815,0.00169008,0.02950883,0.00441974,0.04
 817989,0.00000923,0.00004325,-0.00005778,0.00000990,0.00002147,0.00000
 442,-0.00001064,0.00000900,0.00001140,-0.00000223,-0.00000284,-0.00000
 708,0.00011101,0.00045155,0.00023943,0.00001645,-0.00002645,-0.0000015
 2,-0.00002143,0.00000586,0.00000797,-0.00001201,0.00000271,0.00000913,
 0.00001873,0.00001392,0.00000184,-0.00057608,-0.00096123,-0.00002445,-
 0.00007029,-0.00003437,-0.00010819,0.00038380,0.00029458,0.00111906,-0
 .00005171,-0.00017825,0.00008145,0.00001146,-0.00000197,-0.00000423,0.
 00002267,0.00003340,0.00004580,0.00022521,0.00048863,-0.00029799,-0.00
 000607,0.00007029,-0.00004473,-0.00016863,0.00003361,-0.00028311,-0.00
 004783,0.00013362,0.00007885,0.00006022,0.00000902,-0.00000073,0.00007
 526,-0.00002258,0.00009537,-0.00001210,0.00000928,0.00001014,0.0000100
 0,0.00000388,-0.00000499,-0.00000563,0.00000429,0.00000431,0.00000222,
 0.00000144,-0.00001109,-0.00003634,-0.00004079,0.00005202,-0.00000117,
 0.00001107,0.00000585,0.00001834,0.00000076,-0.00000292,0.00001904,0.0
 0000692,-0.00000745,-0.00000192,0.00000100,-0.00001255,0.00000444,0.00
 000626,0.00000806,-0.00000863,0.00000165,-0.00000040,-0.00052311,-0.00
 654967,-0.00086283,-0.00048104,0.00132346,-0.00149512,-0.00031085,0.00
 058964,-0.00029426,-0.00088655,-0.30756857,-0.03550289,0.00033058,-0.0
 1154854,-0.00123214,-0.00044051,-0.01096143,-0.00095513,0.00234621,0.3
 3432616,-0.00000984,0.00002309,-0.00001001,0.00001937,0.00002156,-0.00
 000082,-0.00001113,-0.00001456,0.00002474,-0.00000813,0.00000196,-0.00
 001850,0.00000950,0.00030143,-0.00007733,0.00002010,-0.00004573,0.0000
 7178,-0.00001438,0.00001054,-0.00000278,-0.00004685,-0.00001032,0.0000
 1585,0.00001035,0.00000912,-0.00000073,0.00071318,0.00004536,-0.000050
 22,-0.00031223,0.00011650,-0.00022949,0.00053329,0.00077913,-0.0005699
 3,-0.00004209,-0.00015272,0.00000404,0.00000485,-0.00000823,-0.0000062
 2,0.00001494,0.00002418,0.00005419,0.00015002,0.00130335,0.00219298,0.
 00001727,0.00007421,0.00000461,0.00018040,-0.00002247,-0.00006479,-0.0
 0016322,0.00008155,-0.00001120,0.00002173,0.00002603,-0.00000086,0.000
 08015,-0.00010279,-0.00006562,0.00000655,0.00001906,-0.00000969,0.0000
 0847,0.00000198,-0.00000606,-0.00000718,0.00000552,0.00000553,0.000000
 71,-0.00000211,0.00000172,-0.00005237,-0.00005501,0.00007145,-0.000003
 21,0.00001426,0.00000808,-0.00000700,-0.00002267,-0.00001948,0.0000164
 7,0.00000756,-0.00000712,-0.00000075,0.00000107,-0.00000828,0.00000725
 ,0.00000924,0.00001071,-0.00000784,0.00000009,-0.00000064,-0.00097888,
 -0.03510552,-0.00234500,-0.00128614,-0.00171981,-0.00661903,0.00020540
 ,0.00080759,0.00145772,-0.00036363,-0.03527684,-0.05410763,-0.00137150
 ,0.01869412,0.00257461,0.00135354,0.01072376,0.00085161,0.00131283,0.0
 3943651,0.05688185\\0.00000690,0.00000460,-0.00000497,0.00000286,-0.00
 000026,-0.00000054,0.00000642,0.00000100,0.00000015,0.00000313,0.00000
 229,-0.00000318,-0.00001335,-0.00001448,0.00000758,0.00000780,-0.00000
 446,-0.00000359,0.00000099,-0.00000364,0.00000218,0.00000532,-0.000002
 72,0.00000150,0.00000054,-0.00000288,0.00000411,0.00000386,-0.00000031
 ,-0.00000939,-0.00000211,-0.00000129,0.00000113,-0.00000037,-0.0000004
 8,0.00000295,0.00000778,0.00001208,0.00000901,-0.00000047,0.00000333,-
 0.00000712,0.00001069,-0.00000149,0.00000158,-0.00001717,0.00000734,-0
 .00000171,0.00002863,-0.00001639,0.00000025,0.00000981,-0.00000903,-0.
 00000150,-0.00000842,0.00000403,0.00000083,-0.00000370,0.00000186,0.00
 000731,-0.00000166,-0.00000056,0.00000215,-0.00001854,0.00000016,-0.00
 000102,0.00000220,-0.00000180,0.00000717,0.00000227,-0.00000215,0.0000
 1094,0.00000641,-0.00000148,-0.00000535,-0.00001126,-0.00000419,-0.000
 00262,-0.00000093,0.00000164,0.00000030,0.00000160,0.00000668,-0.00000
 352,0.00000977,0.00000183,0.00000473,0.00000589,0.00000230,-0.00000292
 ,-0.00000140,0.00000108,-0.00000540,0.00000094,0.00000228,-0.00000421,
 0.00000023,-0.00000055,0.00000093,-0.00000948,0.00000194,-0.00000189,-
 0.00000312,0.00000442,-0.00000584,-0.00001455,0.00000315,0.00000057,-0
 .00000550,0.00000392,0.00000090,-0.00000671,-0.00000036,-0.00000130,-0
 .00000527,0.00000256,-0.00000018\\\@
 The archive entry for this job was punched.


 ONLY THE DAY DAWNS TO WHICH YOU ARE AWAKE.

                                 -- THOREAU
 Job cpu time:       0 days  1 hours 20 minutes 28.7 seconds.
 Elapsed time:       0 days  0 hours  9 minutes 59.4 seconds.
 File lengths (MBytes):  RWF=    391 Int=      0 D2E=      0 Chk=     17 Scr=      1
 Normal termination of Gaussian 16 at Mon Oct 25 03:59:05 2021.
