 Entering Gaussian System, Link 0=/home/rong/g16/g16
 Input=/home/rong/g16/learning/CH3CH2CH2NCH2PhCHCH3-3.gjf
 Output=/home/rong/g16/learning/CH3CH2CH2NCH2PhCHCH3-3.log
 Initial command:
 /home/rong/g16/l1.exe "/tmp/Gau-436391.inp" -scrdir="/tmp/"
 Entering Link 1 = /home/rong/g16/l1.exe PID=    436393.
  
 Copyright (c) 1988-2019, Gaussian, Inc.  All Rights Reserved.
  
 This is part of the Gaussian(R) 16 program.  It is based on
 the Gaussian(R) 09 system (copyright 2009, Gaussian, Inc.),
 the Gaussian(R) 03 system (copyright 2003, Gaussian, Inc.),
 the Gaussian(R) 98 system (copyright 1998, Gaussian, Inc.),
 the Gaussian(R) 94 system (copyright 1995, Gaussian, Inc.),
 the Gaussian 92(TM) system (copyright 1992, Gaussian, Inc.),
 the Gaussian 90(TM) system (copyright 1990, Gaussian, Inc.),
 the Gaussian 88(TM) system (copyright 1988, Gaussian, Inc.),
 the Gaussian 86(TM) system (copyright 1986, Carnegie Mellon
 University), and the Gaussian 82(TM) system (copyright 1983,
 Carnegie Mellon University). Gaussian is a federally registered
 trademark of Gaussian, Inc.
  
 This software contains proprietary and confidential information,
 including trade secrets, belonging to Gaussian, Inc.
  
 This software is provided under written license and may be
 used, copied, transmitted, or stored only in accord with that
 written license.
  
 The following legend is applicable only to US Government
 contracts under FAR:
  
                    RESTRICTED RIGHTS LEGEND
  
 Use, reproduction and disclosure by the US Government is
 subject to restrictions as set forth in subparagraphs (a)
 and (c) of the Commercial Computer Software - Restricted
 Rights clause in FAR 52.227-19.
  
 Gaussian, Inc.
 340 Quinnipiac St., Bldg. 40, Wallingford CT 06492
  
  
 ---------------------------------------------------------------
 Warning -- This program may not be used in any manner that
 competes with the business of Gaussian, Inc. or will provide
 assistance to any competitor of Gaussian, Inc.  The licensee
 of this program is prohibited from giving any competitor of
 Gaussian, Inc. access to this program.  By using this program,
 the user acknowledges that Gaussian, Inc. is engaged in the
 business of creating and licensing software in the field of
 computational chemistry and represents and warrants to the
 licensee that it is not a competitor of Gaussian, Inc. and that
 it will not use this program in any manner prohibited above.
 ---------------------------------------------------------------
  

 Cite this work as:
 Gaussian 16, Revision C.01,
 M. J. Frisch, G. W. Trucks, H. B. Schlegel, G. E. Scuseria, 
 M. A. Robb, J. R. Cheeseman, G. Scalmani, V. Barone, 
 G. A. Petersson, H. Nakatsuji, X. Li, M. Caricato, A. V. Marenich, 
 J. Bloino, B. G. Janesko, R. Gomperts, B. Mennucci, H. P. Hratchian, 
 J. V. Ortiz, A. F. Izmaylov, J. L. Sonnenberg, D. Williams-Young, 
 F. Ding, F. Lipparini, F. Egidi, J. Goings, B. Peng, A. Petrone, 
 T. Henderson, D. Ranasinghe, V. G. Zakrzewski, J. Gao, N. Rega, 
 G. Zheng, W. Liang, M. Hada, M. Ehara, K. Toyota, R. Fukuda, 
 J. Hasegawa, M. Ishida, T. Nakajima, Y. Honda, O. Kitao, H. Nakai, 
 T. Vreven, K. Throssell, J. A. Montgomery, Jr., J. E. Peralta, 
 F. Ogliaro, M. J. Bearpark, J. J. Heyd, E. N. Brothers, K. N. Kudin, 
 V. N. Staroverov, T. A. Keith, R. Kobayashi, J. Normand, 
 K. Raghavachari, A. P. Rendell, J. C. Burant, S. S. Iyengar, 
 J. Tomasi, M. Cossi, J. M. Millam, M. Klene, C. Adamo, R. Cammi, 
 J. W. Ochterski, R. L. Martin, K. Morokuma, O. Farkas, 
 J. B. Foresman, and D. J. Fox, Gaussian, Inc., Wallingford CT, 2019.
 
 ******************************************
 Gaussian 16:  ES64L-G16RevC.01  3-Jul-2019
                27-Oct-2021 
 ******************************************
 %mem=30GB
 %chk=/home/rong/g16/learning/CH3CH2CH2NCH2PhCHCH3-3.chk
 %nprocshared=16
 Will use up to   16 processors via shared memory.
 ----------------------------------------------------
 # opt freq b3lyp/6-31g(d) scrf=(smd,solvent=toluene)
 ----------------------------------------------------
 1/18=20,19=15,26=3,38=1/1,3;
 2/9=110,12=2,17=6,18=5,40=1/2;
 3/5=1,6=6,7=1,11=2,25=1,30=1,70=32201,71=1,72=13,74=-5/1,2,3;
 4//1;
 5/5=2,38=5,53=13/2;
 6/7=2,8=2,9=2,10=2,28=1/1;
 7//1,2,3,16;
 1/18=20,19=15,26=3/3(2);
 2/9=110/2;
 99//99;
 2/9=110/2;
 3/5=1,6=6,7=1,11=2,25=1,30=1,70=32205,71=1,72=13,74=-5/1,2,3;
 4/5=5,16=3,69=1/1;
 5/5=2,38=5,53=13/2;
 7//1,2,3,16;
 1/18=20,19=15,26=3/3(-5);
 2/9=110/2;
 6/7=2,8=2,9=2,10=2,19=2,28=1/1;
 99/9=1/99;
 ------------------
 CH3CH2CH2NMeCH2CH3
 ------------------
 Symbolic Z-matrix:
 Charge =  0 Multiplicity = 1
 C                     4.22894  -4.26089   0.68404 
 H                     4.77176  -3.56688   1.33812 
 H                     4.34853  -5.26858   1.10008 
 H                     4.72392  -4.24563  -0.29661 
 C                     2.73197  -3.88604   0.57203 
 C                     2.0779   -4.06113   1.94804 
 H                     1.02392  -3.77807   1.93573 
 H                     2.13654  -5.10506   2.27933 
 H                     2.58684  -3.44403   2.69874 
 C                     2.73243  -2.39043   0.12587 
 H                     3.36422  -2.31884  -0.77295 
 H                     3.26751  -1.83416   0.9059 
 C                     2.09864  -4.88286  -0.47923 
 H                     2.1772   -4.43828  -1.4847 
 H                     2.75313  -5.75943  -0.50368 
 N                     1.44401  -1.71485  -0.12458 
 N                     0.75417  -5.37504  -0.21057 
 C                     1.20531  -0.49467   0.59007 
 C                     0.56128  -6.80396  -0.00626 
 H                     1.42125  -7.17231   0.56718 
 H                    -0.31688  -6.93461   0.64234 
 C                    -0.38268  -4.60111  -0.68787 
 H                    -1.26996  -4.93534  -0.13073 
 H                    -0.20751  -3.55927  -0.39786 
 C                    -0.69455  -4.66122  -2.19571 
 H                    -1.03544  -5.65315  -2.50576 
 H                    -1.48449  -3.93976  -2.4439 
 H                     0.18444  -4.40883  -2.8005 
 C                     1.16908  -1.49635  -1.55724 
 H                     1.69036  -2.28253  -2.1191 
 H                     1.64014  -0.55166  -1.84273 
 C                    -0.30576  -1.47032  -1.99386 
 H                    -0.53763  -2.26681  -2.71168 
 H                    -0.52808  -0.51446  -2.48089 
 H                    -0.99078  -1.57259  -1.1441 
 H                     2.10064   0.09277   0.35021 
 H                     1.27027  -0.73398   1.66605 
 C                     0.1068    0.49185   0.52656 
 C                    -0.09322   1.22432  -0.6529 
 C                    -0.76023   0.71146   1.60271 
 C                    -1.13413   2.14564  -0.75418 
 H                     0.57418   1.0653   -1.49643 
 C                    -1.80788   1.63253   1.50609 
 H                    -0.6121    0.15917   2.52846 
 C                    -1.99764   2.35166   0.32648 
 H                    -1.27245   2.7063   -1.67535 
 H                    -2.47172   1.78705   2.3531 
 H                    -2.80963   3.06999   0.24771 
 C                     0.36864  -7.70653  -1.22963 
 C                    -0.8568   -8.35118  -1.44354 
 C                     1.40217  -7.93044  -2.1527 
 C                    -1.0552   -9.1829   -2.54862 
 H                    -1.66802  -8.19761  -0.73418 
 C                     1.21007  -8.75788  -3.25928 
 H                     2.36953  -7.45709  -2.005 
 C                    -0.02127  -9.3867   -3.46298 
 H                    -2.01615  -9.67069  -2.69328 
 H                     2.02483  -8.91798  -3.9614 
 H                    -0.17     -10.03305  -4.32416 
 

 GradGradGradGradGradGradGradGradGradGradGradGradGradGradGradGradGradGrad
 Berny optimization.
 Initialization pass.
                           ----------------------------
                           !    Initial Parameters    !
                           ! (Angstroms and Degrees)  !
 --------------------------                            --------------------------
 ! Name  Definition              Value          Derivative Info.                !
 --------------------------------------------------------------------------------
 ! R1    R(1,2)                  1.0973         estimate D2E/DX2                !
 ! R2    R(1,3)                  1.0967         estimate D2E/DX2                !
 ! R3    R(1,4)                  1.0986         estimate D2E/DX2                !
 ! R4    R(1,5)                  1.5473         estimate D2E/DX2                !
 ! R5    R(5,6)                  1.5336         estimate D2E/DX2                !
 ! R6    R(5,10)                 1.5607         estimate D2E/DX2                !
 ! R7    R(5,13)                 1.5811         estimate D2E/DX2                !
 ! R8    R(6,7)                  1.0914         estimate D2E/DX2                !
 ! R9    R(6,8)                  1.0968         estimate D2E/DX2                !
 ! R10   R(6,9)                  1.097          estimate D2E/DX2                !
 ! R11   R(10,11)                1.101          estimate D2E/DX2                !
 ! R12   R(10,12)                1.0974         estimate D2E/DX2                !
 ! R13   R(10,16)                1.4762         estimate D2E/DX2                !
 ! R14   R(13,14)                1.1022         estimate D2E/DX2                !
 ! R15   R(13,15)                1.0942         estimate D2E/DX2                !
 ! R16   R(13,17)                1.4567         estimate D2E/DX2                !
 ! R17   R(16,18)                1.4341         estimate D2E/DX2                !
 ! R18   R(16,29)                1.4751         estimate D2E/DX2                !
 ! R19   R(17,19)                1.4563         estimate D2E/DX2                !
 ! R20   R(17,22)                1.4557         estimate D2E/DX2                !
 ! R21   R(18,36)                1.0974         estimate D2E/DX2                !
 ! R22   R(18,37)                1.1042         estimate D2E/DX2                !
 ! R23   R(18,38)                1.4778         estimate D2E/DX2                !
 ! R24   R(19,20)                1.0973         estimate D2E/DX2                !
 ! R25   R(19,21)                1.0995         estimate D2E/DX2                !
 ! R26   R(19,49)                1.5324         estimate D2E/DX2                !
 ! R27   R(22,23)                1.0997         estimate D2E/DX2                !
 ! R28   R(22,24)                1.0955         estimate D2E/DX2                !
 ! R29   R(22,25)                1.5409         estimate D2E/DX2                !
 ! R30   R(25,26)                1.0937         estimate D2E/DX2                !
 ! R31   R(25,27)                1.0982         estimate D2E/DX2                !
 ! R32   R(25,28)                1.0964         estimate D2E/DX2                !
 ! R33   R(29,30)                1.0979         estimate D2E/DX2                !
 ! R34   R(29,31)                1.0935         estimate D2E/DX2                !
 ! R35   R(29,32)                1.5383         estimate D2E/DX2                !
 ! R36   R(32,33)                1.097          estimate D2E/DX2                !
 ! R37   R(32,34)                1.0956         estimate D2E/DX2                !
 ! R38   R(32,35)                1.0963         estimate D2E/DX2                !
 ! R39   R(38,39)                1.4027         estimate D2E/DX2                !
 ! R40   R(38,40)                1.3993         estimate D2E/DX2                !
 ! R41   R(39,41)                1.3938         estimate D2E/DX2                !
 ! R42   R(39,42)                1.0873         estimate D2E/DX2                !
 ! R43   R(40,43)                1.3983         estimate D2E/DX2                !
 ! R44   R(40,44)                1.0881         estimate D2E/DX2                !
 ! R45   R(41,45)                1.3985         estimate D2E/DX2                !
 ! R46   R(41,46)                1.0872         estimate D2E/DX2                !
 ! R47   R(43,45)                1.3945         estimate D2E/DX2                !
 ! R48   R(43,47)                1.0872         estimate D2E/DX2                !
 ! R49   R(45,48)                1.087          estimate D2E/DX2                !
 ! R50   R(49,50)                1.4011         estimate D2E/DX2                !
 ! R51   R(49,51)                1.4037         estimate D2E/DX2                !
 ! R52   R(50,52)                1.3973         estimate D2E/DX2                !
 ! R53   R(50,53)                1.0885         estimate D2E/DX2                !
 ! R54   R(51,54)                1.395          estimate D2E/DX2                !
 ! R55   R(51,55)                1.087          estimate D2E/DX2                !
 ! R56   R(52,56)                1.3952         estimate D2E/DX2                !
 ! R57   R(52,57)                1.0873         estimate D2E/DX2                !
 ! R58   R(54,56)                1.3975         estimate D2E/DX2                !
 ! R59   R(54,58)                1.0874         estimate D2E/DX2                !
 ! R60   R(56,59)                1.087          estimate D2E/DX2                !
 ! A1    A(2,1,3)              107.5208         estimate D2E/DX2                !
 ! A2    A(2,1,4)              107.4825         estimate D2E/DX2                !
 ! A3    A(2,1,5)              111.6244         estimate D2E/DX2                !
 ! A4    A(3,1,4)              107.5932         estimate D2E/DX2                !
 ! A5    A(3,1,5)              110.8274         estimate D2E/DX2                !
 ! A6    A(4,1,5)              111.5879         estimate D2E/DX2                !
 ! A7    A(1,5,6)              108.6645         estimate D2E/DX2                !
 ! A8    A(1,5,10)             104.6297         estimate D2E/DX2                !
 ! A9    A(1,5,13)             106.4355         estimate D2E/DX2                !
 ! A10   A(6,5,10)             111.4707         estimate D2E/DX2                !
 ! A11   A(6,5,13)             110.7171         estimate D2E/DX2                !
 ! A12   A(10,5,13)            114.4686         estimate D2E/DX2                !
 ! A13   A(5,6,7)              111.8478         estimate D2E/DX2                !
 ! A14   A(5,6,8)              110.9081         estimate D2E/DX2                !
 ! A15   A(5,6,9)              110.6044         estimate D2E/DX2                !
 ! A16   A(7,6,8)              107.5717         estimate D2E/DX2                !
 ! A17   A(7,6,9)              108.0507         estimate D2E/DX2                !
 ! A18   A(8,6,9)              107.6936         estimate D2E/DX2                !
 ! A19   A(5,10,11)            107.2087         estimate D2E/DX2                !
 ! A20   A(5,10,12)            106.4218         estimate D2E/DX2                !
 ! A21   A(5,10,16)            119.1302         estimate D2E/DX2                !
 ! A22   A(11,10,12)           105.5171         estimate D2E/DX2                !
 ! A23   A(11,10,16)           109.4257         estimate D2E/DX2                !
 ! A24   A(12,10,16)           108.3121         estimate D2E/DX2                !
 ! A25   A(5,13,14)            108.8868         estimate D2E/DX2                !
 ! A26   A(5,13,15)            106.2793         estimate D2E/DX2                !
 ! A27   A(5,13,17)            117.3926         estimate D2E/DX2                !
 ! A28   A(14,13,15)           105.0769         estimate D2E/DX2                !
 ! A29   A(14,13,17)           111.7348         estimate D2E/DX2                !
 ! A30   A(15,13,17)           106.5885         estimate D2E/DX2                !
 ! A31   A(10,16,18)           116.7513         estimate D2E/DX2                !
 ! A32   A(10,16,29)           113.2816         estimate D2E/DX2                !
 ! A33   A(18,16,29)           109.0839         estimate D2E/DX2                !
 ! A34   A(13,17,19)           118.6622         estimate D2E/DX2                !
 ! A35   A(13,17,22)           118.7289         estimate D2E/DX2                !
 ! A36   A(19,17,22)           117.6593         estimate D2E/DX2                !
 ! A37   A(16,18,36)           102.1662         estimate D2E/DX2                !
 ! A38   A(16,18,37)           106.9426         estimate D2E/DX2                !
 ! A39   A(16,18,38)           132.0896         estimate D2E/DX2                !
 ! A40   A(36,18,37)           106.3208         estimate D2E/DX2                !
 ! A41   A(36,18,38)           103.8702         estimate D2E/DX2                !
 ! A42   A(37,18,38)           103.314          estimate D2E/DX2                !
 ! A43   A(17,19,20)           107.3911         estimate D2E/DX2                !
 ! A44   A(17,19,21)           107.7664         estimate D2E/DX2                !
 ! A45   A(17,19,49)           118.8522         estimate D2E/DX2                !
 ! A46   A(20,19,21)           106.1279         estimate D2E/DX2                !
 ! A47   A(20,19,49)           108.5423         estimate D2E/DX2                !
 ! A48   A(21,19,49)           107.4902         estimate D2E/DX2                !
 ! A49   A(17,22,23)           107.6014         estimate D2E/DX2                !
 ! A50   A(17,22,24)           107.0928         estimate D2E/DX2                !
 ! A51   A(17,22,25)           117.268          estimate D2E/DX2                !
 ! A52   A(23,22,24)           106.4938         estimate D2E/DX2                !
 ! A53   A(23,22,25)           108.6987         estimate D2E/DX2                !
 ! A54   A(24,22,25)           109.1772         estimate D2E/DX2                !
 ! A55   A(22,25,26)           112.0766         estimate D2E/DX2                !
 ! A56   A(22,25,27)           109.9435         estimate D2E/DX2                !
 ! A57   A(22,25,28)           111.6253         estimate D2E/DX2                !
 ! A58   A(26,25,27)           107.9103         estimate D2E/DX2                !
 ! A59   A(26,25,28)           107.594          estimate D2E/DX2                !
 ! A60   A(27,25,28)           107.5041         estimate D2E/DX2                !
 ! A61   A(16,29,30)           107.6057         estimate D2E/DX2                !
 ! A62   A(16,29,31)           107.5323         estimate D2E/DX2                !
 ! A63   A(16,29,32)           117.1852         estimate D2E/DX2                !
 ! A64   A(30,29,31)           106.2873         estimate D2E/DX2                !
 ! A65   A(30,29,32)           108.7867         estimate D2E/DX2                !
 ! A66   A(31,29,32)           108.9213         estimate D2E/DX2                !
 ! A67   A(29,32,33)           112.0908         estimate D2E/DX2                !
 ! A68   A(29,32,34)           109.6016         estimate D2E/DX2                !
 ! A69   A(29,32,35)           112.1777         estimate D2E/DX2                !
 ! A70   A(33,32,34)           107.4394         estimate D2E/DX2                !
 ! A71   A(33,32,35)           107.9031         estimate D2E/DX2                !
 ! A72   A(34,32,35)           107.4081         estimate D2E/DX2                !
 ! A73   A(18,38,39)           119.3872         estimate D2E/DX2                !
 ! A74   A(18,38,40)           122.16           estimate D2E/DX2                !
 ! A75   A(39,38,40)           118.447          estimate D2E/DX2                !
 ! A76   A(38,39,41)           120.8484         estimate D2E/DX2                !
 ! A77   A(38,39,42)           119.2367         estimate D2E/DX2                !
 ! A78   A(41,39,42)           119.9148         estimate D2E/DX2                !
 ! A79   A(38,40,43)           120.9618         estimate D2E/DX2                !
 ! A80   A(38,40,44)           119.3599         estimate D2E/DX2                !
 ! A81   A(43,40,44)           119.6778         estimate D2E/DX2                !
 ! A82   A(39,41,45)           120.1553         estimate D2E/DX2                !
 ! A83   A(39,41,46)           119.8327         estimate D2E/DX2                !
 ! A84   A(45,41,46)           120.0118         estimate D2E/DX2                !
 ! A85   A(40,43,45)           120.0054         estimate D2E/DX2                !
 ! A86   A(40,43,47)           119.819          estimate D2E/DX2                !
 ! A87   A(45,43,47)           120.1755         estimate D2E/DX2                !
 ! A88   A(41,45,43)           119.5811         estimate D2E/DX2                !
 ! A89   A(41,45,48)           120.1714         estimate D2E/DX2                !
 ! A90   A(43,45,48)           120.2473         estimate D2E/DX2                !
 ! A91   A(19,49,50)           120.1869         estimate D2E/DX2                !
 ! A92   A(19,49,51)           121.7596         estimate D2E/DX2                !
 ! A93   A(50,49,51)           118.0473         estimate D2E/DX2                !
 ! A94   A(49,50,52)           121.253          estimate D2E/DX2                !
 ! A95   A(49,50,53)           119.1714         estimate D2E/DX2                !
 ! A96   A(52,50,53)           119.5754         estimate D2E/DX2                !
 ! A97   A(49,51,54)           120.9871         estimate D2E/DX2                !
 ! A98   A(49,51,55)           119.7635         estimate D2E/DX2                !
 ! A99   A(54,51,55)           119.2489         estimate D2E/DX2                !
 ! A100  A(50,52,56)           120.0031         estimate D2E/DX2                !
 ! A101  A(50,52,57)           119.851          estimate D2E/DX2                !
 ! A102  A(56,52,57)           120.1459         estimate D2E/DX2                !
 ! A103  A(51,54,56)           120.2541         estimate D2E/DX2                !
 ! A104  A(51,54,58)           119.7574         estimate D2E/DX2                !
 ! A105  A(56,54,58)           119.9874         estimate D2E/DX2                !
 ! A106  A(52,56,54)           119.4511         estimate D2E/DX2                !
 ! A107  A(52,56,59)           120.31           estimate D2E/DX2                !
 ! A108  A(54,56,59)           120.2382         estimate D2E/DX2                !
 ! D1    D(2,1,5,6)            -65.1892         estimate D2E/DX2                !
 ! D2    D(2,1,5,10)            53.9849         estimate D2E/DX2                !
 ! D3    D(2,1,5,13)           175.5396         estimate D2E/DX2                !
 ! D4    D(3,1,5,6)             54.6316         estimate D2E/DX2                !
 ! D5    D(3,1,5,10)           173.8057         estimate D2E/DX2                !
 ! D6    D(3,1,5,13)           -64.6395         estimate D2E/DX2                !
 ! D7    D(4,1,5,6)            174.5197         estimate D2E/DX2                !
 ! D8    D(4,1,5,10)           -66.3062         estimate D2E/DX2                !
 ! D9    D(4,1,5,13)            55.2485         estimate D2E/DX2                !
 ! D10   D(1,5,6,7)            178.1231         estimate D2E/DX2                !
 ! D11   D(1,5,6,8)            -61.787          estimate D2E/DX2                !
 ! D12   D(1,5,6,9)             57.6331         estimate D2E/DX2                !
 ! D13   D(10,5,6,7)            63.3307         estimate D2E/DX2                !
 ! D14   D(10,5,6,8)          -176.5794         estimate D2E/DX2                !
 ! D15   D(10,5,6,9)           -57.1592         estimate D2E/DX2                !
 ! D16   D(13,5,6,7)           -65.3227         estimate D2E/DX2                !
 ! D17   D(13,5,6,8)            54.7671         estimate D2E/DX2                !
 ! D18   D(13,5,6,9)           174.1873         estimate D2E/DX2                !
 ! D19   D(1,5,10,11)           53.0905         estimate D2E/DX2                !
 ! D20   D(1,5,10,12)          -59.4451         estimate D2E/DX2                !
 ! D21   D(1,5,10,16)          177.9235         estimate D2E/DX2                !
 ! D22   D(6,5,10,11)          170.354          estimate D2E/DX2                !
 ! D23   D(6,5,10,12)           57.8185         estimate D2E/DX2                !
 ! D24   D(6,5,10,16)          -64.813          estimate D2E/DX2                !
 ! D25   D(13,5,10,11)         -63.0171         estimate D2E/DX2                !
 ! D26   D(13,5,10,12)        -175.5526         estimate D2E/DX2                !
 ! D27   D(13,5,10,16)          61.8159         estimate D2E/DX2                !
 ! D28   D(1,5,13,14)          -90.2033         estimate D2E/DX2                !
 ! D29   D(1,5,13,15)           22.5216         estimate D2E/DX2                !
 ! D30   D(1,5,13,17)          141.6198         estimate D2E/DX2                !
 ! D31   D(6,5,13,14)          151.873          estimate D2E/DX2                !
 ! D32   D(6,5,13,15)          -95.402          estimate D2E/DX2                !
 ! D33   D(6,5,13,17)           23.6961         estimate D2E/DX2                !
 ! D34   D(10,5,13,14)          24.8559         estimate D2E/DX2                !
 ! D35   D(10,5,13,15)         137.5808         estimate D2E/DX2                !
 ! D36   D(10,5,13,17)        -103.321          estimate D2E/DX2                !
 ! D37   D(5,10,16,18)         125.5688         estimate D2E/DX2                !
 ! D38   D(5,10,16,29)        -106.4436         estimate D2E/DX2                !
 ! D39   D(11,10,16,18)       -110.6744         estimate D2E/DX2                !
 ! D40   D(11,10,16,29)         17.3132         estimate D2E/DX2                !
 ! D41   D(12,10,16,18)          3.8777         estimate D2E/DX2                !
 ! D42   D(12,10,16,29)        131.8653         estimate D2E/DX2                !
 ! D43   D(5,13,17,19)        -117.3316         estimate D2E/DX2                !
 ! D44   D(5,13,17,22)          88.1224         estimate D2E/DX2                !
 ! D45   D(14,13,17,19)        115.8659         estimate D2E/DX2                !
 ! D46   D(14,13,17,22)        -38.68           estimate D2E/DX2                !
 ! D47   D(15,13,17,19)          1.6021         estimate D2E/DX2                !
 ! D48   D(15,13,17,22)       -152.9439         estimate D2E/DX2                !
 ! D49   D(10,16,18,36)         53.0364         estimate D2E/DX2                !
 ! D50   D(10,16,18,37)        -58.4446         estimate D2E/DX2                !
 ! D51   D(10,16,18,38)        174.7171         estimate D2E/DX2                !
 ! D52   D(29,16,18,36)        -76.9613         estimate D2E/DX2                !
 ! D53   D(29,16,18,37)        171.5577         estimate D2E/DX2                !
 ! D54   D(29,16,18,38)         44.7195         estimate D2E/DX2                !
 ! D55   D(10,16,29,30)         27.7564         estimate D2E/DX2                !
 ! D56   D(10,16,29,31)        -86.3743         estimate D2E/DX2                !
 ! D57   D(10,16,29,32)        150.6316         estimate D2E/DX2                !
 ! D58   D(18,16,29,30)        159.6216         estimate D2E/DX2                !
 ! D59   D(18,16,29,31)         45.4909         estimate D2E/DX2                !
 ! D60   D(18,16,29,32)        -77.5032         estimate D2E/DX2                !
 ! D61   D(13,17,19,20)         38.3265         estimate D2E/DX2                !
 ! D62   D(13,17,19,21)        152.2819         estimate D2E/DX2                !
 ! D63   D(13,17,19,49)        -85.2484         estimate D2E/DX2                !
 ! D64   D(22,17,19,20)       -166.8563         estimate D2E/DX2                !
 ! D65   D(22,17,19,21)        -52.9009         estimate D2E/DX2                !
 ! D66   D(22,17,19,49)         69.5688         estimate D2E/DX2                !
 ! D67   D(13,17,22,23)       -162.1083         estimate D2E/DX2                !
 ! D68   D(13,17,22,24)        -47.9554         estimate D2E/DX2                !
 ! D69   D(13,17,22,25)         75.0783         estimate D2E/DX2                !
 ! D70   D(19,17,22,23)         43.0917         estimate D2E/DX2                !
 ! D71   D(19,17,22,24)        157.2446         estimate D2E/DX2                !
 ! D72   D(19,17,22,25)        -79.7217         estimate D2E/DX2                !
 ! D73   D(16,18,38,39)        -64.3488         estimate D2E/DX2                !
 ! D74   D(16,18,38,40)        114.7617         estimate D2E/DX2                !
 ! D75   D(36,18,38,39)         56.6854         estimate D2E/DX2                !
 ! D76   D(36,18,38,40)       -124.2041         estimate D2E/DX2                !
 ! D77   D(37,18,38,39)        167.533          estimate D2E/DX2                !
 ! D78   D(37,18,38,40)        -13.3564         estimate D2E/DX2                !
 ! D79   D(17,19,49,50)       -113.6125         estimate D2E/DX2                !
 ! D80   D(17,19,49,51)         67.3109         estimate D2E/DX2                !
 ! D81   D(20,19,49,50)        123.3811         estimate D2E/DX2                !
 ! D82   D(20,19,49,51)        -55.6955         estimate D2E/DX2                !
 ! D83   D(21,19,49,50)          8.9948         estimate D2E/DX2                !
 ! D84   D(21,19,49,51)       -170.0818         estimate D2E/DX2                !
 ! D85   D(17,22,25,26)         67.2902         estimate D2E/DX2                !
 ! D86   D(17,22,25,27)       -172.6967         estimate D2E/DX2                !
 ! D87   D(17,22,25,28)        -53.485          estimate D2E/DX2                !
 ! D88   D(23,22,25,26)        -54.9592         estimate D2E/DX2                !
 ! D89   D(23,22,25,27)         65.0539         estimate D2E/DX2                !
 ! D90   D(23,22,25,28)       -175.7343         estimate D2E/DX2                !
 ! D91   D(24,22,25,26)       -170.7478         estimate D2E/DX2                !
 ! D92   D(24,22,25,27)        -50.7347         estimate D2E/DX2                !
 ! D93   D(24,22,25,28)         68.477          estimate D2E/DX2                !
 ! D94   D(16,29,32,33)       -118.6794         estimate D2E/DX2                !
 ! D95   D(16,29,32,34)        122.1196         estimate D2E/DX2                !
 ! D96   D(16,29,32,35)          2.9025         estimate D2E/DX2                !
 ! D97   D(30,29,32,33)          3.588          estimate D2E/DX2                !
 ! D98   D(30,29,32,34)       -115.613          estimate D2E/DX2                !
 ! D99   D(30,29,32,35)        125.17           estimate D2E/DX2                !
 ! D100  D(31,29,32,33)        119.0407         estimate D2E/DX2                !
 ! D101  D(31,29,32,34)         -0.1603         estimate D2E/DX2                !
 ! D102  D(31,29,32,35)       -119.3773         estimate D2E/DX2                !
 ! D103  D(18,38,39,41)        178.8802         estimate D2E/DX2                !
 ! D104  D(18,38,39,42)         -0.9768         estimate D2E/DX2                !
 ! D105  D(40,38,39,41)         -0.2634         estimate D2E/DX2                !
 ! D106  D(40,38,39,42)        179.8796         estimate D2E/DX2                !
 ! D107  D(18,38,40,43)       -178.7277         estimate D2E/DX2                !
 ! D108  D(18,38,40,44)          1.5365         estimate D2E/DX2                !
 ! D109  D(39,38,40,43)          0.3908         estimate D2E/DX2                !
 ! D110  D(39,38,40,44)       -179.3449         estimate D2E/DX2                !
 ! D111  D(38,39,41,45)         -0.0213         estimate D2E/DX2                !
 ! D112  D(38,39,41,46)        179.8427         estimate D2E/DX2                !
 ! D113  D(42,39,41,45)        179.8348         estimate D2E/DX2                !
 ! D114  D(42,39,41,46)         -0.3012         estimate D2E/DX2                !
 ! D115  D(38,40,43,45)         -0.2335         estimate D2E/DX2                !
 ! D116  D(38,40,43,47)        179.8772         estimate D2E/DX2                !
 ! D117  D(44,40,43,45)        179.5014         estimate D2E/DX2                !
 ! D118  D(44,40,43,47)         -0.3879         estimate D2E/DX2                !
 ! D119  D(39,41,45,43)          0.1846         estimate D2E/DX2                !
 ! D120  D(39,41,45,48)       -179.9889         estimate D2E/DX2                !
 ! D121  D(46,41,45,43)       -179.6792         estimate D2E/DX2                !
 ! D122  D(46,41,45,48)          0.1474         estimate D2E/DX2                !
 ! D123  D(40,43,45,41)         -0.0588         estimate D2E/DX2                !
 ! D124  D(40,43,45,48)       -179.8852         estimate D2E/DX2                !
 ! D125  D(47,43,45,41)        179.8301         estimate D2E/DX2                !
 ! D126  D(47,43,45,48)          0.0037         estimate D2E/DX2                !
 ! D127  D(19,49,50,52)       -179.7558         estimate D2E/DX2                !
 ! D128  D(19,49,50,53)          0.3429         estimate D2E/DX2                !
 ! D129  D(51,49,50,52)         -0.6454         estimate D2E/DX2                !
 ! D130  D(51,49,50,53)        179.4533         estimate D2E/DX2                !
 ! D131  D(19,49,51,54)        179.8441         estimate D2E/DX2                !
 ! D132  D(19,49,51,55)          0.0805         estimate D2E/DX2                !
 ! D133  D(50,49,51,54)          0.7485         estimate D2E/DX2                !
 ! D134  D(50,49,51,55)       -179.0151         estimate D2E/DX2                !
 ! D135  D(49,50,52,56)          0.1402         estimate D2E/DX2                !
 ! D136  D(49,50,52,57)       -179.9031         estimate D2E/DX2                !
 ! D137  D(53,50,52,56)       -179.9589         estimate D2E/DX2                !
 ! D138  D(53,50,52,57)         -0.0022         estimate D2E/DX2                !
 ! D139  D(49,51,54,56)         -0.3489         estimate D2E/DX2                !
 ! D140  D(49,51,54,58)       -179.9535         estimate D2E/DX2                !
 ! D141  D(55,51,54,56)        179.416          estimate D2E/DX2                !
 ! D142  D(55,51,54,58)         -0.1887         estimate D2E/DX2                !
 ! D143  D(50,52,56,54)          0.278          estimate D2E/DX2                !
 ! D144  D(50,52,56,59)        179.9726         estimate D2E/DX2                !
 ! D145  D(57,52,56,54)       -179.6786         estimate D2E/DX2                !
 ! D146  D(57,52,56,59)          0.016          estimate D2E/DX2                !
 ! D147  D(51,54,56,52)         -0.1749         estimate D2E/DX2                !
 ! D148  D(51,54,56,59)       -179.8698         estimate D2E/DX2                !
 ! D149  D(58,54,56,52)        179.4288         estimate D2E/DX2                !
 ! D150  D(58,54,56,59)         -0.266          estimate D2E/DX2                !
 --------------------------------------------------------------------------------
 Trust Radius=3.00D-01 FncErr=1.00D-07 GrdErr=1.00D-06 EigMax=2.50D+02 EigMin=1.00D-04
 Number of steps in this run=    328 maximum allowed number of steps=    354.
 GradGradGradGradGradGradGradGradGradGradGradGradGradGradGradGradGradGrad

 Stoichiometry    C23H34N2
 Framework group  C1[X(C23H34N2)]
 Deg. of freedom   171
 Full point group                 C1      NOp   1
 Largest Abelian subgroup         C1      NOp   1
 Largest concise Abelian subgroup C1      NOp   1
                         Standard orientation:                         
 ---------------------------------------------------------------------
 Center     Atomic      Atomic             Coordinates (Angstroms)
 Number     Number       Type             X           Y           Z
 ---------------------------------------------------------------------
      1          6           0        0.730958    3.826703   -0.542859
      2          1           0       -0.045165    4.595763   -0.441420
      3          1           0        1.615107    4.175710    0.004218
      4          1           0        1.000295    3.767881   -1.606297
      5          6           0        0.252713    2.458920   -0.000233
      6          6           0        0.027070    2.582415    1.511624
      7          1           0       -0.344192    1.651740    1.944224
      8          1           0        0.960852    2.837857    2.027168
      9          1           0       -0.701348    3.373069    1.729915
     10          6           0       -1.083866    2.180331   -0.756440
     11          1           0       -0.875582    2.278631   -1.833065
     12          1           0       -1.758113    3.010556   -0.510864
     13          6           0        1.408460    1.425599   -0.310692
     14          1           0        1.229338    0.976996   -1.301386
     15          1           0        2.323515    2.014404   -0.426105
     16          7           0       -1.799145    0.913039   -0.508460
     17          7           0        1.690233    0.412395    0.697303
     18          6           0       -3.172819    1.014548   -0.109374
     19          6           0        3.002369    0.401417    1.328923
     20          1           0        3.301988    1.446024    1.480831
     21          1           0        2.887929   -0.032552    2.332661
     22          6           0        0.949238   -0.839999    0.656795
     23          1           0        1.052603   -1.319537    1.641048
     24          1           0       -0.110106   -0.583907    0.545287
     25          6           0        1.341374   -1.857406   -0.432041
     26          1           0        2.341488   -2.269042   -0.268983
     27          1           0        0.628960   -2.693190   -0.437789
     28          1           0        1.327755   -1.405610   -1.430931
     29          6           0       -1.690670   -0.045647   -1.624247
     30          1           0       -0.745948    0.157137   -2.145659
     31          1           0       -2.488960    0.184682   -2.335251
     32          6           0       -1.751584   -1.542211   -1.273441
     33          1           0       -0.831349   -2.069455   -1.553794
     34          1           0       -2.578395   -2.013571   -1.816130
     35          1           0       -1.923498   -1.709851   -0.203795
     36          1           0       -3.596522    1.649042   -0.898124
     37          1           0       -3.195205    1.614743    0.817171
     38          6           0       -4.215321   -0.007114    0.121675
     39          6           0       -4.657130   -0.794704   -0.951703
     40          6           0       -4.770134   -0.232368    1.386396
     41          6           0       -5.622041   -1.782701   -0.763562
     42          1           0       -4.236081   -0.629235   -1.940433
     43          6           0       -5.736571   -1.223887    1.581784
     44          1           0       -4.446048    0.377259    2.227414
     45          6           0       -6.164472   -2.002142    0.506681
     46          1           0       -5.954370   -2.381869   -1.607709
     47          1           0       -6.153766   -1.384369    2.572826
     48          1           0       -6.916880   -2.772723    0.653742
     49          6           0        4.150820   -0.339012    0.635228
     50          6           0        4.707695   -1.483003    1.221919
     51          6           0        4.688773    0.106831   -0.582235
     52          6           0        5.758629   -2.172336    0.611451
     53          1           0        4.310534   -1.839623    2.170566
     54          6           0        5.736540   -0.577962   -1.198132
     55          1           0        4.288604    1.000743   -1.053879
     56          6           0        6.275103   -1.722596   -0.604113
     57          1           0        6.172631   -3.058628    1.086205
     58          1           0        6.138607   -0.214417   -2.140796
     59          1           0        7.092909   -2.254765   -1.083181
 ---------------------------------------------------------------------
 Rotational constants (GHZ):           0.4024291           0.0973946           0.0875894
 Standard basis: 6-31G(d) (6D, 7F)
 There are   443 symmetry adapted cartesian basis functions of A   symmetry.
 There are   443 symmetry adapted basis functions of A   symmetry.
   443 basis functions,   836 primitive gaussians,   443 cartesian basis functions
    93 alpha electrons       93 beta electrons
       nuclear repulsion energy      2215.6295460268 Hartrees.
 NAtoms=   59 NActive=   59 NUniq=   59 SFac= 1.00D+00 NAtFMM=   60 NAOKFM=F Big=F
 Integral buffers will be    131072 words long.
 Raffenetti 2 integral format.
 Two-electron integral symmetry is turned on.
 ------------------------------------------------------------------------------
 Polarizable Continuum Model (PCM)
 =================================
 Model                : PCM.
 Atomic radii         : SMD-Coulomb.
 Polarization charges : Total charges.
 Charge compensation  : None.
 Solution method      : On-the-fly selection.
 Cavity type          : VdW (van der Waals Surface) (Alpha=1.000).
 Cavity algorithm     : GePol (No added spheres)
                        Default sphere list used, NSphG=   59.
                        Lebedev-Laikov grids with approx.  5.0 points / Ang**2.
                        Smoothing algorithm: York/Karplus (Gamma=1.0000).
                        Polarization charges: spherical gaussians, with
                                              point-specific exponents (IZeta= 3).
                        Self-potential: point-specific (ISelfS= 7).
                        Self-field    : sphere-specific E.n sum rule (ISelfD= 2).
 1st derivatives      : Analytical E(r).r(x)/FMM algorithm (CHGder, D1EAlg=3).
                        Cavity 1st derivative terms included.
 Solvent              : Toluene, Eps=   2.374100 Eps(inf)=   2.238315
 ------------------------------------------------------------------------------
 ------------------------------------------------------------------------------
 Atomic radii for non-electrostatic terms: SMD-CDS.
 ------------------------------------------------------------------------------
 Nuclear repulsion after PCM non-electrostatic terms =     2215.6141291492 Hartrees.
 One-electron integrals computed using PRISM.
 NBasis=   443 RedAO= T EigKep=  4.51D-04  NBF=   443
 NBsUse=   443 1.00D-06 EigRej= -1.00D+00 NBFU=   443
 ExpMin= 1.61D-01 ExpMax= 4.17D+03 ExpMxC= 6.27D+02 IAcc=3 IRadAn=         5 AccDes= 0.00D+00
 Harris functional with IExCor=  402 and IRadAn=       5 diagonalized for initial guess.
 HarFok:  IExCor=  402 AccDes= 0.00D+00 IRadAn=         5 IDoV= 1 UseB2=F ITyADJ=14
 ICtDFT=  3500011 ScaDFX=  1.000000  1.000000  1.000000  1.000000
 FoFCou: FMM=F IPFlag=           0 FMFlag=      100000 FMFlg1=           0
         NFxFlg=           0 DoJE=T BraDBF=F KetDBF=T FulRan=T
         wScrn=  0.000000 ICntrl=       500 IOpCl=  0 I1Cent=   200000004 NGrid=           0
         NMat0=    1 NMatS0=      1 NMatT0=    0 NMatD0=    1 NMtDS0=    0 NMtDT0=    0
 Petite list used in FoFCou.
 Requested convergence on RMS density matrix=1.00D-08 within 128 cycles.
 Requested convergence on MAX density matrix=1.00D-06.
 Requested convergence on             energy=1.00D-06.
 No special actions if energy rises.
 Inv3:  Mode=1 IEnd=    45326307.
 Iteration    1 A*A^-1 deviation from unit magnitude is 1.32D-14 for   3866.
 Iteration    1 A*A^-1 deviation from orthogonality  is 3.31D-15 for   3850   3519.
 Iteration    1 A^-1*A deviation from unit magnitude is 1.32D-14 for   3866.
 Iteration    1 A^-1*A deviation from orthogonality  is 3.49D-15 for   3885   3467.
 Error on total polarization charges =  0.04445
 SCF Done:  E(RB3LYP) =  -1006.37867160     A.U. after   12 cycles
            NFock= 12  Conv=0.50D-08     -V/T= 2.0098
 SMD-CDS (non-electrostatic) energy       (kcal/mol) =      -9.67
 (included in total energy above)

 **********************************************************************

            Population analysis using the SCF Density.

 **********************************************************************

 Orbital symmetries:
       Occupied  (A) (A) (A) (A) (A) (A) (A) (A) (A) (A) (A) (A)
                 (A) (A) (A) (A) (A) (A) (A) (A) (A) (A) (A) (A)
                 (A) (A) (A) (A) (A) (A) (A) (A) (A) (A) (A) (A)
                 (A) (A) (A) (A) (A) (A) (A) (A) (A) (A) (A) (A)
                 (A) (A) (A) (A) (A) (A) (A) (A) (A) (A) (A) (A)
                 (A) (A) (A) (A) (A) (A) (A) (A) (A) (A) (A) (A)
                 (A) (A) (A) (A) (A) (A) (A) (A) (A) (A) (A) (A)
                 (A) (A) (A) (A) (A) (A) (A) (A) (A)
       Virtual   (A) (A) (A) (A) (A) (A) (A) (A) (A) (A) (A) (A)
                 (A) (A) (A) (A) (A) (A) (A) (A) (A) (A) (A) (A)
                 (A) (A) (A) (A) (A) (A) (A) (A) (A) (A) (A) (A)
                 (A) (A) (A) (A) (A) (A) (A) (A) (A) (A) (A) (A)
                 (A) (A) (A) (A) (A) (A) (A) (A) (A) (A) (A) (A)
                 (A) (A) (A) (A) (A) (A) (A) (A) (A) (A) (A) (A)
                 (A) (A) (A) (A) (A) (A) (A) (A) (A) (A) (A) (A)
                 (A) (A) (A) (A) (A) (A) (A) (A) (A) (A) (A) (A)
                 (A) (A) (A) (A) (A) (A) (A) (A) (A) (A) (A) (A)
                 (A) (A) (A) (A) (A) (A) (A) (A) (A) (A) (A) (A)
                 (A) (A) (A) (A) (A) (A) (A) (A) (A) (A) (A) (A)
                 (A) (A) (A) (A) (A) (A) (A) (A) (A) (A) (A) (A)
                 (A) (A) (A) (A) (A) (A) (A) (A) (A) (A) (A) (A)
                 (A) (A) (A) (A) (A) (A) (A) (A) (A) (A) (A) (A)
                 (A) (A) (A) (A) (A) (A) (A) (A) (A) (A) (A) (A)
                 (A) (A) (A) (A) (A) (A) (A) (A) (A) (A) (A) (A)
                 (A) (A) (A) (A) (A) (A) (A) (A) (A) (A) (A) (A)
                 (A) (A) (A) (A) (A) (A) (A) (A) (A) (A) (A) (A)
                 (A) (A) (A) (A) (A) (A) (A) (A) (A) (A) (A) (A)
                 (A) (A) (A) (A) (A) (A) (A) (A) (A) (A) (A) (A)
                 (A) (A) (A) (A) (A) (A) (A) (A) (A) (A) (A) (A)
                 (A) (A) (A) (A) (A) (A) (A) (A) (A) (A) (A) (A)
                 (A) (A) (A) (A) (A) (A) (A) (A) (A) (A) (A) (A)
                 (A) (A) (A) (A) (A) (A) (A) (A) (A) (A) (A) (A)
                 (A) (A) (A) (A) (A) (A) (A) (A) (A) (A) (A) (A)
                 (A) (A) (A) (A) (A) (A) (A) (A) (A) (A) (A) (A)
                 (A) (A) (A) (A) (A) (A) (A) (A) (A) (A) (A) (A)
                 (A) (A) (A) (A) (A) (A) (A) (A) (A) (A) (A) (A)
                 (A) (A) (A) (A) (A) (A) (A) (A) (A) (A) (A) (A)
                 (A) (A)
 The electronic state is 1-A.
 Alpha  occ. eigenvalues --  -14.31497 -14.30531 -10.20232 -10.19877 -10.19853
 Alpha  occ. eigenvalues --  -10.19580 -10.19535 -10.19144 -10.18661 -10.18493
 Alpha  occ. eigenvalues --  -10.18435 -10.18432 -10.18414 -10.18380 -10.18377
 Alpha  occ. eigenvalues --  -10.18270 -10.18248 -10.18145 -10.18069 -10.17984
 Alpha  occ. eigenvalues --  -10.17961 -10.16602 -10.15844 -10.15650 -10.15468
 Alpha  occ. eigenvalues --   -0.91589  -0.90110  -0.84839  -0.84285  -0.79878
 Alpha  occ. eigenvalues --   -0.76276  -0.75456  -0.74068  -0.73510  -0.73200
 Alpha  occ. eigenvalues --   -0.72452  -0.68210  -0.67954  -0.67162  -0.64148
 Alpha  occ. eigenvalues --   -0.63688  -0.60087  -0.59848  -0.59510  -0.58447
 Alpha  occ. eigenvalues --   -0.56166  -0.55848  -0.52104  -0.50319  -0.50154
 Alpha  occ. eigenvalues --   -0.48150  -0.46973  -0.46887  -0.46502  -0.45768
 Alpha  occ. eigenvalues --   -0.44872  -0.43916  -0.43797  -0.43100  -0.42655
 Alpha  occ. eigenvalues --   -0.42100  -0.41203  -0.41046  -0.40685  -0.40080
 Alpha  occ. eigenvalues --   -0.39647  -0.39246  -0.39023  -0.37745  -0.37396
 Alpha  occ. eigenvalues --   -0.36674  -0.36415  -0.35856  -0.35720  -0.35520
 Alpha  occ. eigenvalues --   -0.35065  -0.34243  -0.33635  -0.33397  -0.33200
 Alpha  occ. eigenvalues --   -0.33124  -0.32956  -0.32211  -0.31605  -0.31184
 Alpha  occ. eigenvalues --   -0.30985  -0.30313  -0.24483  -0.24306  -0.24048
 Alpha  occ. eigenvalues --   -0.23677  -0.19178  -0.18058
 Alpha virt. eigenvalues --   -0.00253   0.00265   0.00415   0.00715   0.07547
 Alpha virt. eigenvalues --    0.09108   0.09550   0.10371   0.11200   0.11998
 Alpha virt. eigenvalues --    0.12099   0.12478   0.12695   0.13367   0.14653
 Alpha virt. eigenvalues --    0.14840   0.15293   0.15877   0.16089   0.16506
 Alpha virt. eigenvalues --    0.16861   0.17156   0.17424   0.17736   0.17959
 Alpha virt. eigenvalues --    0.18232   0.18421   0.18652   0.19145   0.19630
 Alpha virt. eigenvalues --    0.19738   0.20392   0.20671   0.21006   0.21224
 Alpha virt. eigenvalues --    0.21973   0.22165   0.22850   0.23495   0.24039
 Alpha virt. eigenvalues --    0.24643   0.25493   0.26195   0.26322   0.26735
 Alpha virt. eigenvalues --    0.27281   0.27686   0.28044   0.29411   0.30411
 Alpha virt. eigenvalues --    0.31230   0.31621   0.32074   0.32231   0.32917
 Alpha virt. eigenvalues --    0.33718   0.34382   0.35695   0.36142   0.36666
 Alpha virt. eigenvalues --    0.36960   0.39110   0.47363   0.48582   0.49071
 Alpha virt. eigenvalues --    0.50538   0.50990   0.51413   0.52254   0.52526
 Alpha virt. eigenvalues --    0.53248   0.54429   0.54644   0.54999   0.55168
 Alpha virt. eigenvalues --    0.55840   0.56195   0.56261   0.56955   0.57505
 Alpha virt. eigenvalues --    0.58026   0.58599   0.59248   0.59881   0.60331
 Alpha virt. eigenvalues --    0.60354   0.61119   0.61355   0.61463   0.62026
 Alpha virt. eigenvalues --    0.62167   0.62307   0.62721   0.63289   0.63560
 Alpha virt. eigenvalues --    0.63612   0.64607   0.65325   0.65749   0.66869
 Alpha virt. eigenvalues --    0.68009   0.68099   0.68715   0.69725   0.70149
 Alpha virt. eigenvalues --    0.71561   0.71931   0.73053   0.73988   0.75490
 Alpha virt. eigenvalues --    0.76315   0.76905   0.78996   0.79572   0.80222
 Alpha virt. eigenvalues --    0.80600   0.81906   0.82918   0.82998   0.83211
 Alpha virt. eigenvalues --    0.83286   0.83748   0.84421   0.84623   0.85097
 Alpha virt. eigenvalues --    0.85631   0.85966   0.86098   0.86783   0.87864
 Alpha virt. eigenvalues --    0.87958   0.89152   0.89592   0.90157   0.90353
 Alpha virt. eigenvalues --    0.91086   0.91417   0.91796   0.92236   0.92778
 Alpha virt. eigenvalues --    0.93209   0.93664   0.93766   0.94420   0.94593
 Alpha virt. eigenvalues --    0.95460   0.95975   0.96052   0.96317   0.97492
 Alpha virt. eigenvalues --    0.98330   0.98617   0.99379   0.99609   1.00383
 Alpha virt. eigenvalues --    1.00826   1.01184   1.01932   1.02980   1.04173
 Alpha virt. eigenvalues --    1.04651   1.05844   1.06243   1.06702   1.09566
 Alpha virt. eigenvalues --    1.10234   1.11292   1.13210   1.13409   1.14466
 Alpha virt. eigenvalues --    1.14571   1.16368   1.17020   1.17749   1.18407
 Alpha virt. eigenvalues --    1.19129   1.20605   1.22502   1.23828   1.26170
 Alpha virt. eigenvalues --    1.26992   1.29248   1.30539   1.31469   1.32758
 Alpha virt. eigenvalues --    1.34315   1.36492   1.38492   1.40783   1.42572
 Alpha virt. eigenvalues --    1.43198   1.43928   1.44644   1.45318   1.46195
 Alpha virt. eigenvalues --    1.48259   1.48834   1.49136   1.49609   1.50017
 Alpha virt. eigenvalues --    1.50551   1.51946   1.52314   1.52840   1.54675
 Alpha virt. eigenvalues --    1.55807   1.55912   1.57740   1.58509   1.62023
 Alpha virt. eigenvalues --    1.64043   1.64562   1.68955   1.69448   1.72423
 Alpha virt. eigenvalues --    1.74696   1.77855   1.79988   1.80018   1.81697
 Alpha virt. eigenvalues --    1.81744   1.82555   1.83186   1.84821   1.86486
 Alpha virt. eigenvalues --    1.87920   1.88551   1.89784   1.90911   1.91271
 Alpha virt. eigenvalues --    1.91542   1.92064   1.92882   1.93438   1.94405
 Alpha virt. eigenvalues --    1.94778   1.97116   1.98137   1.98489   1.98957
 Alpha virt. eigenvalues --    1.99489   2.00033   2.00879   2.02890   2.03494
 Alpha virt. eigenvalues --    2.04804   2.06178   2.06470   2.07951   2.09220
 Alpha virt. eigenvalues --    2.09642   2.10813   2.11943   2.12245   2.13517
 Alpha virt. eigenvalues --    2.14570   2.15133   2.15326   2.15652   2.16713
 Alpha virt. eigenvalues --    2.17033   2.17308   2.19174   2.20909   2.21728
 Alpha virt. eigenvalues --    2.22991   2.24033   2.25584   2.26063   2.26737
 Alpha virt. eigenvalues --    2.28049   2.28890   2.29907   2.30438   2.30937
 Alpha virt. eigenvalues --    2.31581   2.32136   2.32544   2.33171   2.34642
 Alpha virt. eigenvalues --    2.37484   2.38706   2.39588   2.41090   2.41694
 Alpha virt. eigenvalues --    2.43998   2.44568   2.46124   2.47204   2.49585
 Alpha virt. eigenvalues --    2.54063   2.54604   2.56894   2.58246   2.58921
 Alpha virt. eigenvalues --    2.59276   2.60707   2.61442   2.64422   2.66032
 Alpha virt. eigenvalues --    2.66284   2.68155   2.69133   2.71433   2.72981
 Alpha virt. eigenvalues --    2.73835   2.74391   2.75440   2.76037   2.76462
 Alpha virt. eigenvalues --    2.76821   2.77994   2.78329   2.81168   2.83906
 Alpha virt. eigenvalues --    2.86620   2.88277   2.90007   2.90770   2.92264
 Alpha virt. eigenvalues --    3.00353   3.06934   3.08647   3.41446   3.42493
 Alpha virt. eigenvalues --    4.03279   4.09401   4.09791   4.10184   4.12869
 Alpha virt. eigenvalues --    4.13182   4.16258   4.17676   4.19970   4.25122
 Alpha virt. eigenvalues --    4.28870   4.32381   4.34081   4.35040   4.36747
 Alpha virt. eigenvalues --    4.37494   4.39554   4.45403   4.49863   4.50678
 Alpha virt. eigenvalues --    4.52361   4.56505   4.71226   4.72208   4.77641
          Condensed to atoms (all electrons):
 Mulliken charges:
               1
     1  C   -0.473325
     2  H    0.142403
     3  H    0.145072
     4  H    0.141038
     5  C    0.119802
     6  C   -0.447066
     7  H    0.160148
     8  H    0.137540
     9  H    0.127031
    10  C   -0.136701
    11  H    0.127781
    12  H    0.133356
    13  C   -0.155444
    14  H    0.128956
    15  H    0.141958
    16  N   -0.382921
    17  N   -0.362408
    18  C   -0.219265
    19  C   -0.243266
    20  H    0.151740
    21  H    0.142199
    22  C   -0.152764
    23  H    0.125834
    24  H    0.175220
    25  C   -0.463696
    26  H    0.152111
    27  H    0.143407
    28  H    0.143697
    29  C   -0.146302
    30  H    0.146555
    31  H    0.122593
    32  C   -0.463524
    33  H    0.154894
    34  H    0.141022
    35  H    0.167274
    36  H    0.116919
    37  H    0.143270
    38  C    0.159752
    39  C   -0.172746
    40  C   -0.190732
    41  C   -0.150652
    42  H    0.144765
    43  C   -0.143470
    44  H    0.140460
    45  C   -0.140811
    46  H    0.139982
    47  H    0.142257
    48  H    0.140631
    49  C    0.176557
    50  C   -0.201596
    51  C   -0.194036
    52  C   -0.138393
    53  H    0.134423
    54  C   -0.140727
    55  H    0.138264
    56  C   -0.145393
    57  H    0.139080
    58  H    0.138389
    59  H    0.138858
 Sum of Mulliken charges =  -0.00000
 Mulliken charges with hydrogens summed into heavy atoms:
               1
     1  C   -0.044812
     5  C    0.119802
     6  C   -0.022347
    10  C    0.124436
    13  C    0.115470
    16  N   -0.382921
    17  N   -0.362408
    18  C    0.040924
    19  C    0.050673
    22  C    0.148290
    25  C   -0.024481
    29  C    0.122846
    32  C   -0.000334
    38  C    0.159752
    39  C   -0.027980
    40  C   -0.050273
    41  C   -0.010670
    43  C   -0.001213
    45  C   -0.000180
    49  C    0.176557
    50  C   -0.067172
    51  C   -0.055772
    52  C    0.000687
    54  C   -0.002338
    56  C   -0.006535
 Electronic spatial extent (au):  <R**2>=          12392.5990
 Charge=              0.0000 electrons
 Dipole moment (field-independent basis, Debye):
    X=             -0.3558    Y=              0.2575    Z=             -0.7685  Tot=              0.8851
 Quadrupole moment (field-independent basis, Debye-Ang):
   XX=           -151.2657   YY=           -150.0274   ZZ=           -147.3981
   XY=              2.1549   XZ=             -2.6296   YZ=             -2.1742
 Traceless Quadrupole moment (field-independent basis, Debye-Ang):
   XX=             -1.7020   YY=             -0.4637   ZZ=              2.1656
   XY=              2.1549   XZ=             -2.6296   YZ=             -2.1742
 Octapole moment (field-independent basis, Debye-Ang**2):
  XXX=             -3.9601  YYY=              0.6732  ZZZ=              2.7174  XYY=              1.9684
  XXY=            -57.7367  XXZ=             -7.9806  XZZ=             -8.8615  YZZ=             -5.8236
  YYZ=              3.9984  XYZ=            -11.3061
 Hexadecapole moment (field-independent basis, Debye-Ang**3):
 XXXX=         -13183.0677 YYYY=          -2831.6846 ZZZZ=          -1140.6196 XXXY=             84.3898
 XXXZ=           -278.4720 YYYX=            -14.7884 YYYZ=             -6.0919 ZZZX=            -31.1056
 ZZZY=            -14.2644 XXYY=          -2467.3250 XXZZ=          -2230.5568 YYZZ=           -660.8567
 XXYZ=            -18.5932 YYXZ=             32.2635 ZZXY=             14.7923
 N-N= 2.215614129149D+03 E-N=-6.761129806536D+03  KE= 9.966237421975D+02
 D1PCM: PCM CHGder 1st derivatives, ID1Alg=3 FixD1E=F DoIter=F DoCFld=F I1PDM=0.
 Calling FoFJK, ICntrl=      2127 FMM=F ISym2X=0 I1Cent= 0 IOpClX= 0 NMat=1 NMatS=1 NMatT=0.
 ***** Axes restored to original set *****
 -------------------------------------------------------------------
 Center     Atomic                   Forces (Hartrees/Bohr)
 Number     Number              X              Y              Z
 -------------------------------------------------------------------
      1        6           0.000159604    0.000383506    0.000071831
      2        1           0.000103144   -0.000010673   -0.000026101
      3        1          -0.000158073    0.000077387   -0.000093807
      4        1          -0.000089199    0.000026066    0.000107971
      5        6          -0.000673383   -0.000182028   -0.000299099
      6        6          -0.000109670    0.000901132   -0.000123511
      7        1          -0.001413161    0.000502289   -0.000567837
      8        1          -0.000378962    0.000541419    0.000252322
      9        1           0.000888913    0.000356585    0.000504979
     10        6          -0.003641643    0.007236016    0.004132443
     11        1          -0.000629764    0.001754699   -0.000411119
     12        1          -0.000096839    0.001474746    0.000809050
     13        6          -0.000506265   -0.000220374   -0.000056417
     14        1          -0.000112703    0.000174811    0.000104928
     15        1           0.000138249    0.000086746    0.000091207
     16        7          -0.038427932   -0.031700033   -0.032112364
     17        7           0.000471621   -0.000105783    0.000331325
     18        6           0.053203206    0.007986987    0.051800643
     19        6           0.000158042   -0.000078579   -0.000166291
     20        1           0.000022153   -0.000071012    0.000030055
     21        1           0.000004669    0.000073537    0.000001639
     22        6          -0.000269968    0.000374241    0.000061618
     23        1          -0.000001007   -0.000052074   -0.000082140
     24        1           0.000234581   -0.001496334    0.000260961
     25        6          -0.001863083   -0.003286149    0.000100687
     26        1           0.000366447   -0.000480790    0.000271255
     27        1          -0.000048861   -0.004268837    0.000680331
     28        1           0.000114356   -0.000418125   -0.000050316
     29        6           0.008477196   -0.013832010   -0.002404760
     30        1          -0.001309369    0.002586963    0.001365043
     31        1           0.006035488    0.004441455   -0.006577024
     32        6          -0.004003018    0.002791013   -0.002553452
     33        1           0.003008748    0.005572631    0.003357927
     34        1          -0.003187974   -0.002826221   -0.000178586
     35        1           0.001404613    0.000531658   -0.001986991
     36        1           0.008104884    0.013483334    0.006937254
     37        1           0.006350624   -0.001621313   -0.003017697
     38        6          -0.028050443   -0.004582902   -0.025311401
     39        6          -0.004402416    0.009802627    0.001600931
     40        6          -0.000813826   -0.000953493    0.001226628
     41        6           0.000895588    0.001248883    0.000184387
     42        1          -0.001387670    0.004023586    0.002444657
     43        6           0.002211434    0.000954120    0.000351793
     44        1          -0.000675431   -0.000977958   -0.000621513
     45        6          -0.000286466   -0.000108430   -0.000446451
     46        1          -0.000126904    0.000125895   -0.000016666
     47        1           0.000370110   -0.000020823    0.000062032
     48        1          -0.000052954   -0.000106545   -0.000028281
     49        6           0.000056823   -0.000147894   -0.000024919
     50        6           0.000073685    0.000039353    0.000003730
     51        6          -0.000130400    0.000000196    0.000012625
     52        6          -0.000002277    0.000000121    0.000014037
     53        1          -0.000030222   -0.000029561   -0.000031202
     54        6           0.000006179   -0.000016384    0.000021363
     55        1           0.000035354    0.000019563   -0.000062576
     56        6          -0.000031430    0.000003845    0.000049216
     57        1          -0.000003060    0.000003996    0.000002944
     58        1           0.000011974    0.000009959    0.000006936
     59        1           0.000006686    0.000004962   -0.000004228
 -------------------------------------------------------------------
 Cartesian Forces:  Max     0.053203206 RMS     0.008116165

 GradGradGradGradGradGradGradGradGradGradGradGradGradGradGradGradGradGrad
 Berny optimization.
 FormGI is forming the generalized inverse of G from B-inverse, IUseBI=4.
 Internal  Forces:  Max     0.042433153 RMS     0.007071572
 Search for a local minimum.
 Step number   1 out of a maximum of  328
 All quantities printed in internal units (Hartrees-Bohrs-Radians)
 Mixed Optimization -- RFO/linear search
 Second derivative matrix not updated -- first step.
 ITU=  0
     Eigenvalues ---    0.00230   0.00230   0.00230   0.00230   0.00259
     Eigenvalues ---    0.00322   0.00337   0.00684   0.00699   0.00941
     Eigenvalues ---    0.00947   0.00954   0.01059   0.01231   0.01241
     Eigenvalues ---    0.01352   0.01663   0.02066   0.02079   0.02095
     Eigenvalues ---    0.02101   0.02104   0.02111   0.02121   0.02122
     Eigenvalues ---    0.02129   0.02132   0.02137   0.02138   0.02139
     Eigenvalues ---    0.02141   0.02144   0.02150   0.02306   0.03388
     Eigenvalues ---    0.03404   0.03568   0.03615   0.03678   0.03789
     Eigenvalues ---    0.04213   0.05223   0.05235   0.05270   0.05279
     Eigenvalues ---    0.05297   0.05311   0.05325   0.05386   0.05405
     Eigenvalues ---    0.05411   0.05419   0.05502   0.05536   0.05554
     Eigenvalues ---    0.06288   0.06416   0.10114   0.10164   0.10198
     Eigenvalues ---    0.10330   0.10942   0.12850   0.13307   0.13337
     Eigenvalues ---    0.13407   0.13491   0.13838   0.13906   0.14767
     Eigenvalues ---    0.14788   0.16000   0.16000   0.16000   0.16000
     Eigenvalues ---    0.16000   0.16000   0.16000   0.16000   0.16000
     Eigenvalues ---    0.16000   0.16000   0.16000   0.16000   0.16000
     Eigenvalues ---    0.16000   0.16000   0.16000   0.16000   0.16000
     Eigenvalues ---    0.16000   0.16000   0.16000   0.17619   0.18930
     Eigenvalues ---    0.21991   0.22000   0.22000   0.22000   0.22000
     Eigenvalues ---    0.22024   0.22033   0.22039   0.22083   0.22305
     Eigenvalues ---    0.22825   0.22906   0.23469   0.23472   0.24997
     Eigenvalues ---    0.24997   0.25167   0.26758   0.27886   0.28437
     Eigenvalues ---    0.28667   0.29095   0.29199   0.33224   0.33442
     Eigenvalues ---    0.33573   0.33713   0.33737   0.33838   0.33879
     Eigenvalues ---    0.33910   0.33974   0.33976   0.33980   0.33983
     Eigenvalues ---    0.34016   0.34018   0.34038   0.34046   0.34084
     Eigenvalues ---    0.34098   0.34175   0.34179   0.34329   0.34384
     Eigenvalues ---    0.34406   0.34652   0.34819   0.34986   0.35009
     Eigenvalues ---    0.35032   0.35115   0.35122   0.35125   0.35137
     Eigenvalues ---    0.35140   0.35140   0.35157   0.35163   0.35164
     Eigenvalues ---    0.37378   0.37433   0.37502   0.40410   0.41686
     Eigenvalues ---    0.41747   0.41754   0.41822   0.45418   0.45534
     Eigenvalues ---    0.45763   0.45801   0.46183   0.46193   0.46361
     Eigenvalues ---    0.46501
 RFO step:  Lambda=-7.27110382D-02 EMin= 2.30000000D-03
 Linear search not attempted -- first point.
 Maximum step size (   0.300) exceeded in Quadratic search.
    -- Step size scaled by   0.746
 Iteration  1 RMS(Cart)=  0.34511121 RMS(Int)=  0.01233750
 Iteration  2 RMS(Cart)=  0.14996566 RMS(Int)=  0.00221470
 Iteration  3 RMS(Cart)=  0.00689578 RMS(Int)=  0.00050881
 Iteration  4 RMS(Cart)=  0.00000689 RMS(Int)=  0.00050880
 Iteration  5 RMS(Cart)=  0.00000001 RMS(Int)=  0.00050880
 Variable       Old X    -DE/DX   Delta X   Delta X   Delta X     New X
                                 (Linear)    (Quad)   (Total)
    R1        2.07363   0.00003   0.00000   0.00005   0.00005   2.07368
    R2        2.07252  -0.00012   0.00000  -0.00022  -0.00022   2.07230
    R3        2.07604  -0.00014   0.00000  -0.00025  -0.00025   2.07579
    R4        2.92388  -0.00010   0.00000  -0.00020  -0.00020   2.92368
    R5        2.89805   0.00023   0.00000   0.00047   0.00047   2.89852
    R6        2.94937   0.00738   0.00000   0.01618   0.01618   2.96555
    R7        2.98785   0.00571   0.00000   0.01314   0.01314   3.00099
    R8        2.06243   0.00150   0.00000   0.00267   0.00267   2.06510
    R9        2.07266  -0.00046   0.00000  -0.00083  -0.00083   2.07183
   R10        2.07300   0.00096   0.00000   0.00173   0.00173   2.07473
   R11        2.08056   0.00009   0.00000   0.00016   0.00016   2.08072
   R12        2.07370   0.00128   0.00000   0.00231   0.00231   2.07601
   R13        2.78960  -0.00686   0.00000  -0.01211  -0.01211   2.77749
   R14        2.08282  -0.00003   0.00000  -0.00006  -0.00006   2.08276
   R15        2.06779   0.00001   0.00000   0.00002   0.00002   2.06781
   R16        2.75280   0.00438   0.00000   0.00732   0.00732   2.76012
   R17        2.71000   0.03654   0.00000   0.05717   0.05717   2.76717
   R18        2.78748   0.00667   0.00000   0.01173   0.01173   2.79920
   R19        2.75198   0.00014   0.00000   0.00023   0.00023   2.75221
   R20        2.75097  -0.00438   0.00000  -0.00730  -0.00730   2.74367
   R21        2.07374   0.01231   0.00000   0.02228   0.02228   2.09602
   R22        2.08660  -0.00222   0.00000  -0.00408  -0.00408   2.08252
   R23        2.79270   0.03118   0.00000   0.05527   0.05527   2.84797
   R24        2.07358   0.00006   0.00000   0.00010   0.00010   2.07368
   R25        2.07777  -0.00001   0.00000  -0.00002  -0.00002   2.07775
   R26        2.89590   0.00008   0.00000   0.00016   0.00016   2.89606
   R27        2.07818  -0.00002   0.00000  -0.00005  -0.00005   2.07813
   R28        2.07029  -0.00132   0.00000  -0.00237  -0.00237   2.06792
   R29        2.91193  -0.00036   0.00000  -0.00076  -0.00076   2.91117
   R30        2.06686   0.00024   0.00000   0.00044   0.00044   2.06730
   R31        2.07535  -0.00292   0.00000  -0.00530  -0.00530   2.07005
   R32        2.07189   0.00002   0.00000   0.00004   0.00004   2.07193
   R33        2.07482  -0.00317   0.00000  -0.00575  -0.00575   2.06908
   R34        2.06650   0.00815   0.00000   0.01460   0.01460   2.08110
   R35        2.90703   0.00315   0.00000   0.00654   0.00654   2.91358
   R36        2.07304  -0.00688   0.00000  -0.01243  -0.01243   2.06060
   R37        2.07036  -0.00174   0.00000  -0.00313  -0.00313   2.06722
   R38        2.07164  -0.00247   0.00000  -0.00445  -0.00445   2.06719
   R39        2.65076   0.00652   0.00000   0.00954   0.00957   2.66033
   R40        2.64432   0.00139   0.00000   0.00207   0.00210   2.64642
   R41        2.63384   0.00012   0.00000   0.00030   0.00030   2.63413
   R42        2.05472  -0.00334   0.00000  -0.00587  -0.00587   2.04885
   R43        2.64243  -0.00099   0.00000  -0.00153  -0.00153   2.64091
   R44        2.05623  -0.00012   0.00000  -0.00022  -0.00022   2.05601
   R45        2.64285  -0.00163   0.00000  -0.00241  -0.00244   2.64041
   R46        2.05453   0.00009   0.00000   0.00017   0.00017   2.05470
   R47        2.63522  -0.00109   0.00000  -0.00176  -0.00179   2.63343
   R48        2.05448  -0.00018   0.00000  -0.00032  -0.00032   2.05416
   R49        2.05411  -0.00003   0.00000  -0.00005  -0.00005   2.05405
   R50        2.64766  -0.00002   0.00000  -0.00003  -0.00003   2.64764
   R51        2.65262  -0.00004   0.00000  -0.00006  -0.00006   2.65255
   R52        2.64042  -0.00005   0.00000  -0.00007  -0.00007   2.64036
   R53        2.05698  -0.00000   0.00000  -0.00000  -0.00000   2.05698
   R54        2.63621  -0.00002   0.00000  -0.00003  -0.00003   2.63618
   R55        2.05421   0.00003   0.00000   0.00005   0.00005   2.05427
   R56        2.63656  -0.00005   0.00000  -0.00007  -0.00007   2.63649
   R57        2.05477   0.00000   0.00000   0.00000   0.00000   2.05477
   R58        2.64095  -0.00001   0.00000  -0.00001  -0.00001   2.64095
   R59        2.05489   0.00000   0.00000   0.00000   0.00000   2.05489
   R60        2.05409  -0.00000   0.00000  -0.00000  -0.00000   2.05409
    A1        1.87659   0.00005   0.00000   0.00024   0.00024   1.87683
    A2        1.87592  -0.00005   0.00000  -0.00012  -0.00012   1.87580
    A3        1.94821   0.00020   0.00000   0.00071   0.00071   1.94892
    A4        1.87786   0.00009   0.00000   0.00016   0.00016   1.87802
    A5        1.93430  -0.00022   0.00000  -0.00074  -0.00074   1.93356
    A6        1.94758  -0.00006   0.00000  -0.00023  -0.00023   1.94735
    A7        1.89655   0.00826   0.00000   0.01043   0.00935   1.90591
    A8        1.82613  -0.00966   0.00000  -0.03969  -0.03906   1.78707
    A9        1.85765  -0.00713   0.00000  -0.02920  -0.02829   1.82936
   A10        1.94553  -0.00697   0.00000  -0.02184  -0.02251   1.92302
   A11        1.93238  -0.00753   0.00000  -0.02083  -0.02138   1.91100
   A12        1.99785   0.02264   0.00000   0.09644   0.09656   2.09441
   A13        1.95211  -0.00086   0.00000  -0.00283  -0.00283   1.94928
   A14        1.93571   0.00096   0.00000   0.00320   0.00320   1.93891
   A15        1.93041  -0.00045   0.00000  -0.00148  -0.00148   1.92893
   A16        1.87748  -0.00003   0.00000  -0.00005  -0.00005   1.87743
   A17        1.88584   0.00060   0.00000   0.00174   0.00174   1.88758
   A18        1.87961  -0.00020   0.00000  -0.00050  -0.00050   1.87911
   A19        1.87114  -0.00464   0.00000   0.01068   0.00841   1.87956
   A20        1.85741  -0.01836   0.00000  -0.06174  -0.05960   1.79781
   A21        2.07921   0.04243   0.00000   0.11177   0.11107   2.19029
   A22        1.84162   0.00482   0.00000  -0.00182  -0.00262   1.83900
   A23        1.90984  -0.01403   0.00000  -0.02309  -0.02678   1.88306
   A24        1.89040  -0.01366   0.00000  -0.04774  -0.04571   1.84469
   A25        1.90043   0.00315   0.00000   0.02778   0.02662   1.92705
   A26        1.85492  -0.00750   0.00000  -0.04072  -0.04077   1.81415
   A27        2.04889   0.00604   0.00000   0.01676   0.01557   2.06446
   A28        1.83394   0.00098   0.00000  -0.00019   0.00052   1.83446
   A29        1.95014   0.00221   0.00000   0.02674   0.02547   1.97561
   A30        1.86032  -0.00629   0.00000  -0.03860  -0.03870   1.82162
   A31        2.03769  -0.03586   0.00000  -0.11324  -0.11257   1.92513
   A32        1.97714  -0.00163   0.00000  -0.00848  -0.00656   1.97057
   A33        1.90387   0.03173   0.00000   0.08418   0.08268   1.98655
   A34        2.07105  -0.00787   0.00000  -0.01997  -0.01982   2.05122
   A35        2.07221   0.02127   0.00000   0.05229   0.05216   2.12437
   A36        2.05354  -0.01358   0.00000  -0.03401  -0.03391   2.01963
   A37        1.78314   0.02089   0.00000   0.07607   0.07711   1.86025
   A38        1.86650  -0.00114   0.00000  -0.01953  -0.02049   1.84601
   A39        2.30540  -0.02557   0.00000  -0.06366  -0.06380   2.24160
   A40        1.85565  -0.00637   0.00000  -0.02186  -0.02168   1.83397
   A41        1.81288   0.00024   0.00000   0.00458   0.00579   1.81867
   A42        1.80317   0.01330   0.00000   0.02743   0.02582   1.82899
   A43        1.87433  -0.00004   0.00000   0.00004   0.00004   1.87436
   A44        1.88088  -0.00014   0.00000  -0.00049  -0.00049   1.88038
   A45        2.07436   0.00029   0.00000   0.00076   0.00076   2.07512
   A46        1.85228   0.00003   0.00000  -0.00002  -0.00002   1.85226
   A47        1.89442  -0.00008   0.00000  -0.00010  -0.00010   1.89432
   A48        1.87606  -0.00008   0.00000  -0.00025  -0.00025   1.87581
   A49        1.87800   0.00223   0.00000  -0.00209  -0.00252   1.87548
   A50        1.86912   0.00291   0.00000   0.01295   0.01310   1.88223
   A51        2.04671  -0.00897   0.00000  -0.02368  -0.02383   2.02289
   A52        1.85867  -0.00110   0.00000   0.00025   0.00032   1.85899
   A53        1.89715  -0.00080   0.00000  -0.01101  -0.01130   1.88585
   A54        1.90550   0.00627   0.00000   0.02538   0.02553   1.93103
   A55        1.95611  -0.00132   0.00000  -0.00575  -0.00575   1.95035
   A56        1.91888   0.00103   0.00000   0.00384   0.00383   1.92270
   A57        1.94823   0.00042   0.00000   0.00233   0.00232   1.95055
   A58        1.88339  -0.00080   0.00000  -0.00448  -0.00448   1.87891
   A59        1.87787   0.00002   0.00000  -0.00088  -0.00088   1.87698
   A60        1.87630   0.00065   0.00000   0.00506   0.00503   1.88133
   A61        1.87807  -0.00099   0.00000  -0.00243  -0.00244   1.87563
   A62        1.87679   0.00197   0.00000   0.00865   0.00865   1.88545
   A63        2.04527   0.00083   0.00000   0.00373   0.00372   2.04899
   A64        1.85506  -0.00165   0.00000  -0.01019  -0.01018   1.84488
   A65        1.89869   0.00135   0.00000   0.00488   0.00487   1.90356
   A66        1.90104  -0.00176   0.00000  -0.00611  -0.00613   1.89491
   A67        1.95635  -0.00291   0.00000  -0.01023  -0.01021   1.94615
   A68        1.91291   0.00578   0.00000   0.01903   0.01903   1.93194
   A69        1.95787  -0.00007   0.00000   0.00018   0.00015   1.95802
   A70        1.87517  -0.00200   0.00000  -0.00723  -0.00718   1.86799
   A71        1.88326   0.00124   0.00000   0.00309   0.00308   1.88635
   A72        1.87463  -0.00219   0.00000  -0.00527  -0.00532   1.86931
   A73        2.08370   0.02342   0.00000   0.05406   0.05386   2.13756
   A74        2.13209  -0.01711   0.00000  -0.03966  -0.03983   2.09226
   A75        2.06729  -0.00626   0.00000  -0.01398  -0.01403   2.05325
   A76        2.10920   0.00247   0.00000   0.00676   0.00678   2.11598
   A77        2.08107   0.00097   0.00000   0.00369   0.00363   2.08470
   A78        2.09291  -0.00343   0.00000  -0.01041  -0.01048   2.08243
   A79        2.11118   0.00313   0.00000   0.00768   0.00773   2.11891
   A80        2.08322  -0.00174   0.00000  -0.00441  -0.00444   2.07878
   A81        2.08877  -0.00139   0.00000  -0.00326  -0.00329   2.08548
   A82        2.09711   0.00032   0.00000   0.00058   0.00057   2.09768
   A83        2.09148  -0.00000   0.00000   0.00022   0.00021   2.09169
   A84        2.09460  -0.00032   0.00000  -0.00080  -0.00080   2.09380
   A85        2.09449   0.00118   0.00000   0.00201   0.00201   2.09650
   A86        2.09124  -0.00083   0.00000  -0.00179  -0.00178   2.08945
   A87        2.09746  -0.00035   0.00000  -0.00022  -0.00022   2.09724
   A88        2.08708  -0.00083   0.00000  -0.00308  -0.00311   2.08397
   A89        2.09739   0.00043   0.00000   0.00157   0.00158   2.09897
   A90        2.09871   0.00040   0.00000   0.00149   0.00150   2.10022
   A91        2.09766  -0.00013   0.00000  -0.00030  -0.00030   2.09736
   A92        2.12511   0.00016   0.00000   0.00036   0.00036   2.12547
   A93        2.06031  -0.00003   0.00000  -0.00007  -0.00007   2.06025
   A94        2.11626   0.00004   0.00000   0.00010   0.00010   2.11637
   A95        2.07993   0.00003   0.00000   0.00012   0.00012   2.08006
   A96        2.08699  -0.00008   0.00000  -0.00022  -0.00022   2.08676
   A97        2.11162  -0.00000   0.00000  -0.00000  -0.00000   2.11162
   A98        2.09027   0.00006   0.00000   0.00018   0.00018   2.09045
   A99        2.08129  -0.00006   0.00000  -0.00018  -0.00018   2.08110
   A100       2.09445  -0.00002   0.00000  -0.00005  -0.00005   2.09440
   A101       2.09179   0.00000   0.00000   0.00001   0.00001   2.09180
   A102       2.09694   0.00002   0.00000   0.00004   0.00004   2.09699
   A103       2.09883   0.00001   0.00000   0.00003   0.00003   2.09886
   A104       2.09016  -0.00002   0.00000  -0.00007  -0.00007   2.09010
   A105       2.09417   0.00001   0.00000   0.00004   0.00004   2.09421
   A106       2.08482  -0.00000   0.00000  -0.00001  -0.00001   2.08481
   A107       2.09981   0.00001   0.00000   0.00003   0.00003   2.09983
   A108       2.09855  -0.00001   0.00000  -0.00002  -0.00002   2.09853
    D1       -1.13777   0.00026   0.00000   0.00214   0.00214  -1.13563
    D2        0.94221  -0.00896   0.00000  -0.03931  -0.03968   0.90253
    D3        3.06374   0.00872   0.00000   0.03735   0.03774   3.10148
    D4        0.95350   0.00030   0.00000   0.00242   0.00241   0.95591
    D5        3.03348  -0.00892   0.00000  -0.03903  -0.03941   2.99407
    D6       -1.12817   0.00877   0.00000   0.03763   0.03801  -1.09016
    D7        3.04594   0.00023   0.00000   0.00197   0.00196   3.04791
    D8       -1.15726  -0.00899   0.00000  -0.03948  -0.03986  -1.19712
    D9        0.96427   0.00869   0.00000   0.03718   0.03756   1.00183
   D10        3.10884  -0.00105   0.00000  -0.00566  -0.00571   3.10312
   D11       -1.07839  -0.00101   0.00000  -0.00544  -0.00549  -1.08388
   D12        1.00589  -0.00093   0.00000  -0.00496  -0.00501   1.00088
   D13        1.10533   0.00962   0.00000   0.04826   0.04789   1.15322
   D14       -3.08189   0.00966   0.00000   0.04849   0.04811  -3.03379
   D15       -0.99762   0.00974   0.00000   0.04897   0.04859  -0.94903
   D16       -1.14010  -0.00905   0.00000  -0.04663  -0.04619  -1.18629
   D17        0.95587  -0.00902   0.00000  -0.04640  -0.04597   0.90989
   D18        3.04014  -0.00893   0.00000  -0.04592  -0.04549   2.99465
   D19        0.92660  -0.00547   0.00000  -0.02118  -0.02254   0.90407
   D20       -1.03751  -0.00047   0.00000   0.00437   0.00342  -1.03409
   D21        3.10535   0.00353   0.00000   0.04210   0.04275  -3.13508
   D22        2.97324  -0.00472   0.00000  -0.04257  -0.04334   2.92990
   D23        1.00912   0.00028   0.00000  -0.01703  -0.01738   0.99174
   D24       -1.13120   0.00428   0.00000   0.02070   0.02195  -1.10925
   D25       -1.09986  -0.00231   0.00000  -0.01012  -0.01042  -1.11027
   D26       -3.06397   0.00269   0.00000   0.01543   0.01554  -3.04843
   D27        1.07889   0.00669   0.00000   0.05316   0.05487   1.13376
   D28       -1.57434   0.00203   0.00000  -0.01168  -0.01108  -1.58543
   D29        0.39308   0.00091   0.00000  -0.01920  -0.01909   0.37399
   D30        2.47173  -0.00909   0.00000  -0.08920  -0.08908   2.38265
   D31        2.65068   0.00035   0.00000   0.00405   0.00449   2.65517
   D32       -1.66508  -0.00077   0.00000  -0.00347  -0.00352  -1.66860
   D33        0.41357  -0.01078   0.00000  -0.07347  -0.07351   0.34006
   D34        0.43382  -0.00217   0.00000  -0.02701  -0.02707   0.40674
   D35        2.40124  -0.00329   0.00000  -0.03453  -0.03508   2.36616
   D36       -1.80329  -0.01329   0.00000  -0.10453  -0.10507  -1.90836
   D37        2.19159  -0.01937   0.00000  -0.11265  -0.11393   2.07766
   D38       -1.85779  -0.00827   0.00000  -0.10426  -0.10333  -1.96112
   D39       -1.93163  -0.00475   0.00000  -0.02963  -0.03126  -1.96290
   D40        0.30217   0.00635   0.00000  -0.02124  -0.02067   0.28150
   D41        0.06768  -0.01378   0.00000  -0.06964  -0.07004  -0.00237
[...]
 070,-0.00001983,-0.00000004,0.00000095,-0.00000067,-0.00000409,-0.0000
 0611,0.00000266,0.00000078,-0.00000071,0.00000169,0.00000005,-0.000003
 22,0.00000315,0.00000047,0.00000002,-0.00000055,-0.00000136,0.00000156
 ,-0.00000226,-0.00000236,-0.00000576,-0.00000066,0.00000177,0.00000209
 ,0.00000156,0.00000163,-0.00000358,-0.00000245,0.00000064,-0.00000059,
 0.00000063,-0.00000076,0.00000604,0.00000830,0.00000091,-0.00000155,-0
 .00000004,-0.00000122,-0.00000139,-0.00000088,0.00000152,-0.00000276,0
 .00000074,-0.00000300,0.00000736,-0.00000426,-0.00000183,-0.00000109,0
 .00000067,0.00000038,-0.00000190,-0.00000128,-0.00000398,0.00000212,-0
 .00000045,0.00000157,-0.00000036,-0.00000140,0.00342444,0.00057338,-0.
 00234106,0.00179888,0.00087270,-0.00024170,0.00018594,0.00064371,0.000
 52768,-0.22002488,-0.06109761,-0.13065463,-0.00038645,-0.00080481,0.00
 201744,0.00012031,0.00467616,-0.00305352,-0.00040460,-0.00025888,0.000
 47513,-0.01295813,-0.00929731,-0.01211662,0.22928010,-0.00000073,-0.00
 001643,-0.00000858,-0.00001031,-0.00000087,-0.00000330,0.00000319,-0.0
 0000106,0.00000120,-0.00000215,0.00000139,0.00000407,-0.00000548,0.000
 01712,0.00000833,-0.00000257,-0.00000169,-0.00000998,-0.00000424,0.000
 01638,0.00000619,0.00000969,-0.00001351,0.00001063,-0.00001284,-0.0000
 1184,-0.00000405,-0.00000088,0.00002275,-0.00001171,-0.00000010,-0.000
 00099,0.00000332,-0.00000309,-0.00001086,0.00000027,0.00015429,-0.0000
 1050,0.00001685,-0.00003372,-0.00000884,0.00001667,0.00000359,0.000003
 60,-0.00000608,0.00000073,-0.00002491,0.00000898,-0.00013638,-0.000383
 24,0.00021601,-0.00000122,0.00000904,0.00000852,-0.00098952,0.00077772
 ,-0.00099300,-0.00004328,-0.00047321,-0.00020228,0.00003326,-0.0000192
 8,0.00003408,-0.00012379,0.00008738,-0.00016406,0.00001028,-0.00000232
 ,-0.00000590,0.00000845,-0.00001850,0.00005424,0.00001759,-0.00004950,
 0.00006674,-0.00002785,0.00001575,-0.00005465,-0.00000397,-0.00001660,
 0.00004306,0.00001144,0.00001378,-0.00000375,0.00000097,0.00001061,-0.
 00001878,-0.00000013,0.00000039,-0.00000090,-0.00000208,-0.00000582,0.
 00000331,-0.00000126,-0.00000281,0.00000213,0.00000009,-0.00000299,0.0
 0000246,0.00000056,0.,-0.00000036,-0.00000069,0.00000264,-0.00000223,-
 0.00000120,-0.00000521,-0.00000090,0.00000273,0.00000200,0.00000127,0.
 00000101,-0.00000341,-0.00000292,0.00000126,-0.00000023,0.00000035,0.0
 0000120,0.00000966,0.00001066,0.00000116,-0.00000201,-0.00000023,-0.00
 000043,-0.00000075,-0.00000085,-0.00000432,-0.00000942,0.00000138,-0.0
 0000757,0.00001098,-0.00000497,0.00000141,-0.00000036,0.00000088,0.000
 00037,-0.00000100,-0.00000105,-0.00000258,0.00000369,-0.00000222,0.000
 00172,-0.00000164,-0.00000239,0.00177427,-0.00514043,-0.00194598,-0.02
 526649,-0.00451843,-0.01746664,0.00056850,-0.00100828,0.00015700,-0.06
 140533,-0.08386817,-0.05121056,-0.00024292,0.00098654,0.00115124,0.003
 52017,-0.00233967,-0.00019336,-0.00027594,0.00013800,0.00019240,0.0170
 3019,0.01055491,0.01272929,0.06554930,0.08407833,-0.00000227,-0.000005
 43,-0.00000641,-0.00000658,-0.00000325,-0.00000296,0.00000313,-0.00000
 186,0.00000383,0.00000117,0.00000149,0.00000073,0.00000225,0.00002264,
 -0.00000889,-0.00000168,0.00000217,-0.00000750,-0.00000042,0.00000766,
 0.00000399,0.00000530,-0.00000700,0.00000924,-0.00000691,-0.00000807,-
 0.00000306,0.00000159,0.00001581,-0.00000168,0.00000201,-0.00000060,-0
 .00000037,-0.00000177,-0.00000629,-0.00000098,0.00014969,-0.00002348,0
 .00004771,-0.00001231,-0.00000906,0.00000755,0.00002185,0.00006653,-0.
 00000756,-0.00000140,-0.00001982,-0.00000445,-0.00008888,-0.00020938,0
 .00010710,-0.00000309,0.00000915,0.00001177,-0.00030678,0.00053222,-0.
 00010100,-0.00000567,-0.00003957,-0.00011499,0.00003393,-0.00005810,0.
 00000376,-0.00006031,0.00003977,-0.00002792,0.00001304,0.00000532,-0.0
 0000600,-0.00000061,-0.00001536,0.00002029,0.00004139,-0.00000375,0.00
 001493,-0.00000499,-0.00000225,-0.00001480,-0.00000817,-0.00001612,0.0
 0002320,-0.00000488,0.00000363,0.00000054,0.00000287,0.00001008,-0.000
 00516,0.00000202,-0.00000111,-0.00000304,-0.00000255,-0.00000405,0.000
 00032,0.00000122,0.00000011,0.00000022,0.00000035,-0.00000073,0.000001
 28,0.00000005,-0.00000243,-0.00000133,-0.00000227,0.00000199,0.0000003
 9,-0.00000050,-0.00000486,-0.00000155,0.00000191,0.00000116,-0.0000002
 5,-0.00000062,-0.00000273,-0.00000242,0.00000235,0.00000022,-0.0000007
 8,0.00000074,0.00000796,0.00000512,0.00000048,-0.00000151,-0.00000061,
 -0.00000021,-0.00000043,-0.00000010,-0.00000422,-0.00000644,-0.0000012
 8,-0.00000455,0.00000345,-0.00000024,0.00000003,0.00000054,-0.00000010
 ,0.00000046,-0.00000133,-0.00000051,-0.00000165,0.00000241,0.00000118,
 0.00000216,-0.00000198,-0.00000117,-0.00253898,-0.00300986,0.00513099,
 -0.00684395,-0.00093946,-0.00200708,0.00043258,-0.00006951,-0.00010763
 ,-0.13038928,-0.05137022,-0.13072602,0.00211824,0.00081282,-0.00243000
 ,-0.00332380,0.00054955,0.00509657,0.00057683,0.00018746,-0.00089987,-
 0.00559026,-0.00348695,-0.00186483,0.14416365,0.05634152,0.13020450,-0
 .00000040,0.00000653,0.00000993,0.00000828,0.00000533,0.00000331,-0.00
 000376,-0.00000062,-0.00000705,-0.00000163,-0.00000250,-0.00000043,0.0
 0000008,-0.00000430,-0.00001620,0.00000276,0.00000208,0.00000238,0.000
 00055,-0.00000439,-0.00000370,-0.00000258,0.00000141,-0.00000747,0.000
 00608,0.00000751,0.00000554,-0.00000056,-0.00001311,0.00000898,-0.0000
 0164,-0.00000053,0.00000011,0.00000451,0.00001062,0.00000060,-0.000042
 55,-0.00001449,0.00001038,0.00001037,-0.00000432,-0.00000353,-0.000003
 53,0.00000293,-0.00000214,0.00000352,0.00002050,0.00000217,0.00008895,
 0.00013711,-0.00002047,0.00000011,-0.00000950,-0.00001109,0.00008040,-
 0.00047742,-0.00010553,0.00001767,0.00005565,0.00002844,-0.00003496,-0
 .00005575,0.00001362,0.00003222,-0.00002938,0.00003844,-0.00000239,-0.
 00000666,-0.00000276,0.,0.00001281,-0.00001031,-0.00001624,-0.00002996
 ,-0.00000667,0.00000819,0.00000839,0.00000350,-0.00000405,0.00000175,-
 0.00000725,0.00000715,0.00000533,0.00000369,-0.00000503,-0.00001015,0.
 00000689,-0.00000187,0.00000051,0.00000263,0.00000434,0.00000467,-0.00
 000013,-0.00000238,-0.00000119,-0.00000022,-0.00000024,0.00000088,-0.0
 0000169,-0.00000013,0.00000193,0.00000129,0.00000286,-0.00000106,0.000
 00006,0.00000176,0.00000544,0.00000117,-0.00000036,-0.00000167,-0.0000
 0001,-0.00000079,0.00000326,0.00000229,-0.00000100,-0.00000004,0.00000
 075,0.00000151,-0.00000575,-0.00000421,-0.00000033,0.00000112,0.000000
 76,0.00000101,0.00000142,-0.00000005,-0.00000165,0.00000034,0.00000140
 ,0.00000171,-0.00000379,0.00000038,0.00000207,0.00000061,0.00000060,-0
 .00000056,0.00000211,0.00000055,0.00000300,-0.00000073,-0.00000186,-0.
 00000170,0.00000058,0.00000011,0.00288328,0.00019318,-0.00288995,0.000
 02841,-0.00063191,0.00007205,0.00468458,-0.00333999,0.00065354,-0.0003
 3667,-0.00230487,-0.00548345,-0.00033615,-0.00000633,0.00062903,-0.188
 97301,0.12971189,-0.06770625,-0.00055732,-0.00026869,0.00216241,-0.012
 79541,0.01748554,-0.00558169,-0.00070964,0.00095045,-0.00038159,0.1962
 3731,-0.00000011,-0.00004941,-0.00000472,-0.00001626,0.00000893,-0.000
 00270,0.00000208,0.00000910,-0.00001557,-0.00000462,-0.00000248,0.0000
 0831,-0.00000890,0.00003712,0.00000574,-0.00000707,-0.00001927,0.00000
 130,-0.00000833,0.00002228,0.00001095,0.00001453,-0.00000159,0.0000032
 0,-0.00001167,-0.00000939,-0.00000628,0.00001465,0.00000433,-0.0000047
 9,0.00000149,0.00000040,0.00000374,-0.00000892,-0.00001235,-0.00000288
 ,0.00027055,-0.00005098,0.00006124,-0.00004668,-0.00002407,0.00002838,
 0.00001067,0.00006184,-0.00002704,-0.00002458,-0.00001603,-0.00000339,
 -0.00031228,-0.00036275,0.00015250,0.00000418,0.00000907,0.00000647,0.
 00151965,0.00032650,0.00051855,-0.00004541,-0.00001368,-0.00002196,0.0
 0004307,-0.00052744,-0.00014444,-0.00010988,0.00004376,-0.00013046,-0.
 00000346,0.00001672,-0.00000393,0.00000089,-0.00002565,0.00005511,0.00
 004543,0.00000337,0.00002476,-0.00000064,-0.00000689,-0.00002355,-0.00
 000464,-0.00000633,0.00002803,-0.00001997,-0.00000466,0.00000501,0.000
 00532,0.00001314,-0.00000816,0.00000354,0.00000071,-0.00000187,-0.0000
 0599,-0.00000745,-0.00000005,0.00000511,0.00000237,-0.00000062,-0.0000
 0095,-0.00000136,0.00000204,-0.00000070,-0.00000105,-0.00000096,-0.000
 00542,0.00000138,-0.00000126,-0.00000336,-0.00000609,-0.00000023,-0.00
 000077,0.00000204,-0.00000046,0.00000983,-0.00000529,-0.00000436,-0.00
 000289,-0.00000121,-0.00000019,-0.00000807,0.00001421,0.00001006,0.000
 00060,-0.00000289,-0.00000154,-0.00000127,-0.00000350,-0.00000051,0.00
 000552,-0.00000174,-0.00000136,0.00000008,0.00001073,-0.00000177,-0.00
 000451,-0.00000056,0.00000038,0.00000032,-0.00000270,-0.00000074,-0.00
 000864,0.00000218,0.00000201,0.00000176,-0.00000081,-0.00000054,-0.001
 39618,-0.00416540,-0.00383737,-0.00078000,-0.00036134,-0.00053872,0.02
 271269,-0.01523171,0.01057576,-0.00108120,0.00042659,-0.00236448,0.000
 00945,0.00000037,0.00032914,0.12970430,-0.17697670,0.04880923,-0.00083
 087,0.00098054,0.00075555,-0.00837284,0.01018440,-0.00355836,-0.000466
 86,0.00041728,-0.00024885,-0.14066454,0.18465349,-0.00000277,-0.000006
 44,0.00000580,0.00000070,-0.00000213,-0.00000191,-0.00000195,0.0000029
 5,0.00000650,0.00000407,0.00000570,-0.00000815,-0.00000077,-0.00000598
 ,0.00000473,-0.00000222,-0.00001528,0.00000710,0.00000184,0.00000009,-
 0.00000151,-0.00000138,0.00000706,-0.00000246,0.00000050,0.00000146,-0
 .00000217,-0.00000522,-0.00000031,0.00000021,0.00000066,0.00000151,-0.
 00000356,0.00000037,-0.00000076,0.00000096,-0.00004314,0.00000088,-0.0
 0002175,-0.00000026,0.00002490,-0.00001404,-0.00002516,-0.00002554,0.0
 0001044,0.00000552,-0.00000083,-0.00000447,-0.00005678,-0.00000302,-0.
 00000115,-0.00000139,0.00000048,0.00000468,0.00035994,-0.00001291,0.00
 032223,-0.00002113,-0.00000182,-0.00002054,0.00008326,-0.00002942,-0.0
 0008041,-0.00000184,0.00002526,-0.00000384,0.00000484,-0.00000746,-0.0
 0000654,-0.00000003,-0.00000020,-0.00000996,-0.00000878,0.00000783,-0.
 00000001,-0.00002211,-0.00000934,0.00002341,0.00000551,0.00000706,-0.0
 0000436,0.00001269,0.00000575,-0.00000572,-0.00000171,-0.00000082,0.00
 000415,-0.00000036,-0.00000092,-0.00000111,0.00000111,0.00000132,-0.00
 000016,-0.00000082,-0.00000048,-0.00000016,0.00000005,0.00000063,-0.00
 000068,0.00000030,-0.00000079,-0.00000013,0.00000066,0.00000033,0.0000
 0051,0.00000062,0.00000048,-0.00000081,-0.00000063,-0.00000034,-0.0000
 0067,-0.00000133,0.00000006,-0.00000029,0.00000070,0.00000016,-0.00000
 101,0.00000048,0.00000180,-0.00000038,-0.00000009,-0.00000012,-0.00000
 046,0.00000036,0.00000038,0.00000048,-0.00000123,-0.00000091,-0.000000
 87,-0.00000101,0.00000088,0.00000087,0.00000092,0.00000029,-0.00000054
 ,0.00000005,0.00000009,0.00000037,0.00000072,0.00000033,0.00000070,0.0
 0000037,-0.00000060,0.00000017,-0.00288453,-0.00342279,0.00461027,-0.0
 0003769,-0.00071536,-0.00062065,0.00734653,-0.00613073,0.00576712,-0.0
 0525686,-0.00303991,0.00283659,0.00056131,0.00033814,-0.00081685,-0.06
 822952,0.04838692,-0.06842835,0.00210713,0.00112681,-0.00219863,-0.011
 78704,0.01361900,-0.00171591,-0.00083113,0.00068339,0.00001785,0.07638
 392,-0.05152371,0.06253061,0.00000054,0.00000611,-0.00000592,-0.000001
 97,-0.00000265,0.00000069,0.00000542,-0.00000293,0.00000104,-0.0000016
 9,-0.00000201,0.00000409,0.00000422,-0.00000916,0.00001107,0.00000183,
 0.00001485,-0.00000580,-0.00000024,-0.00000223,0.00000108,0.00000164,-
 0.00000249,0.00000692,0.00000011,-0.00000431,0.00000007,-0.00000395,0.
 00000481,-0.00000786,-0.00000041,-0.00000066,0.00000204,-0.00000085,-0
 .00000419,0.00000056,-0.00003859,0.00005511,-0.00001757,-0.00000130,-0
 .00001398,0.00000748,0.00001855,-0.00002406,0.00000905,0.00000152,-0.0
 0000267,0.00000594,0.00005553,-0.00012169,-0.00000690,0.00000027,0.000
 00082,-0.00000086,-0.00017822,-0.00025514,0.00051689,0.00007505,0.0000
 7708,0.00008057,-0.00000262,-0.00003772,-0.00003053,-0.00004704,-0.000
 00253,-0.00004683,0.00001359,-0.00001337,-0.00000128,0.00000387,-0.000
 00233,0.00001694,0.00000553,-0.00001491,0.00000457,0.00000106,0.000012
 11,0.00000878,0.00000147,0.00000606,0.00000133,0.00000439,0.00000336,-
 0.00000490,0.00000079,0.00000026,-0.00000537,-0.00000053,0.00000049,0.
 00000063,-0.00000052,-0.00000110,0.00000082,-0.00000112,-0.00000093,0.
 00000074,0.00000041,-0.00000062,0.00000048,0.00000019,0.00000067,0.000
 00019,0.00000048,-0.00000013,-0.00000036,-0.00000013,-0.00000067,0.000
 00044,0.00000084,0.00000066,0.00000089,-0.00000061,-0.00000001,0.00000
 015,0.00000028,0.00000037,0.00000048,0.00000155,-0.00000101,0.00000139
 ,0.00000013,0.00000032,0.00000030,-0.00000014,0.00000004,-0.00000018,-
 0.00000115,-0.00000106,0.00000074,-0.00000220,0.00000193,-0.00000173,0
 .00000098,-0.00000032,0.00000003,0.00000013,0.00000017,-0.00000015,0.0
 0000070,-0.00000026,-0.00000135,-0.00000026,0.00000025,-0.00000021,-0.
 00113598,0.00028254,-0.00018056,-0.00118975,0.00302298,-0.00452300,-0.
 00149766,0.00032635,-0.00566714,0.00536695,0.02232396,0.00782262,0.000
 18252,0.00125536,0.00027080,0.00274056,-0.02473254,-0.00606987,0.00009
 334,-0.00126935,-0.00051293,-0.05447825,-0.01341389,-0.01581040,-0.000
 20097,-0.00104478,0.00201983,-0.00028413,-0.00011727,0.00234373,0.0504
 8587,0.00000086,-0.00000676,-0.00001346,-0.00001105,-0.00000482,-0.000
 00338,0.00000634,-0.00000273,0.00000407,-0.00000106,0.00000052,0.00000
 572,0.00000302,0.00000486,0.00001901,-0.00000114,0.00000825,-0.0000077
 6,-0.00000233,0.00000829,0.00000531,0.00000722,-0.00000834,0.00001146,
 -0.00000860,-0.00001112,-0.00000557,0.00000106,0.00001883,-0.00001391,
 0.00000133,-0.00000031,0.00000299,-0.00000600,-0.00001426,-0.00000113,
 0.00006373,0.00003972,0.00000036,-0.00001830,-0.00001501,0.00001530,0.
 00002123,-0.00000988,0.00000568,-0.00000749,-0.00002751,0.00000337,-0.
 00006301,-0.00017352,0.00002893,0.00000141,0.00001194,0.00000968,-0.00
 008931,0.00011340,0.00013161,-0.00002325,-0.00002701,-0.00001132,-0.00
 000419,0.00000087,0.00001409,-0.00003022,0.00002543,-0.00006900,-0.000
 00930,0.00002266,0.00000717,-0.00001061,-0.00001736,0.00002853,0.00002
 023,0.00003213,0.00002694,0.00001205,-0.00001530,-0.00004834,0.0000008
 8,-0.00001742,0.00001859,-0.00002107,-0.00001242,0.00000008,0.00000713
 ,0.00001501,-0.00001575,0.00000226,0.00000038,-0.00000235,-0.00000635,
 -0.00000757,0.00000091,0.00000368,0.00000136,0.00000068,-0.00000005,-0
 .00000250,0.00000336,0.00000003,-0.00000140,-0.00000144,-0.00000392,0.
 00000154,-0.00000137,-0.00000306,-0.00000757,-0.00000075,0.00000142,0.
 00000254,0.00000096,0.00000324,-0.00000435,-0.00000305,0.00000061,-0.0
 0000062,0.00000024,-0.00000334,0.00000791,0.00000776,0.00000075,-0.000
 00194,-0.00000050,-0.00000171,-0.00000223,-0.00000069,0.00000410,-0.00
 000047,-0.00000028,-0.00000054,0.00000614,-0.00000273,-0.00000420,-0.0
 0000116,0.00000055,0.00000053,-0.00000296,-0.00000139,-0.00000630,0.00
 000187,0.00000136,0.00000212,-0.00000038,-0.00000100,0.00014395,0.0004
 6017,0.00040823,0.00417582,-0.00015334,0.00070327,-0.00078927,0.001727
 42,-0.00200578,-0.00385064,-0.01534301,-0.00701677,-0.00015831,-0.0009
 1603,-0.00043301,0.00132818,-0.00517943,-0.00106662,0.00013416,-0.0003
 8832,-0.00009242,-0.01334866,-0.31372726,-0.08156655,-0.00042211,0.000
 79481,0.00095621,-0.00074826,0.00064990,0.00070702,0.01370631,0.332148
 39,0.00000159,0.00000439,-0.00000453,-0.00000366,-0.00000477,-0.000001
 61,0.00000470,-0.00000232,0.00000501,0.00000126,0.00000030,0.00000063,
 0.00001402,-0.00000445,0.00000690,-0.00000440,0.00000866,-0.00001021,0
 .00000076,0.00000108,0.00000021,0.00000449,-0.00000646,0.00001024,-0.0
 0000429,-0.00000858,-0.00000194,-0.00000555,0.00000935,-0.00000677,0.0
 0000121,-0.00000002,-0.00000035,-0.00000191,-0.00000702,0.00000011,-0.
 00000434,0.00001617,0.00000612,0.00000444,-0.00000526,0.00000534,0.000
 03534,0.00000273,-0.00000951,0.00000178,-0.00001013,-0.00000261,-0.000
 04138,0.00011153,0.00007111,-0.00000132,0.00000527,0.00000684,0.000575
 55,0.00045131,-0.00065328,-0.00008365,-0.00001735,-0.00003306,0.000087
 01,-0.00011369,0.00003164,-0.00000472,0.00002559,0.00001281,0.00000704
 ,0.00000073,-0.00000140,0.00000383,-0.00000049,-0.00001139,-0.00000245
 ,-0.00000053,0.,-0.00001117,-0.00000336,0.00000537,0.00000171,-0.00000
 176,0.00000493,0.00000334,0.00000169,-0.00000290,0.00000260,0.00000475
 ,-0.00000240,0.00000059,-0.00000074,-0.00000156,-0.00000155,-0.0000015
 6,0.00000015,0.00000020,0.,0.00000039,0.00000053,-0.00000007,0.0000005
 8,0.00000032,-0.00000133,-0.00000081,-0.00000072,0.00000053,0.00000044
 ,-0.00000030,-0.00000276,-0.00000069,0.00000093,0.00000099,0.00000015,
 -0.00000132,-0.00000166,-0.00000078,0.00000161,0.00000035,-0.00000076,
 0.00000011,0.00000370,0.00000156,0.00000006,-0.00000060,-0.00000042,-0
 .00000027,-0.00000028,0.00000016,-0.00000109,-0.00000171,-0.00000056,-
 0.00000098,-0.00000108,-0.00000041,-0.00000028,0.00000009,-0.00000047,
 0.00000037,-0.00000093,-0.00000016,-0.00000094,0.00000093,0.00000088,0
 .00000112,-0.00000075,-0.00000014,-0.00013414,0.00020446,-0.00079060,-
 0.00419913,0.00002017,0.00456474,-0.00593201,-0.00120409,0.00312118,0.
 00114392,0.00954501,0.00543829,-0.00010499,0.00044386,0.00035580,0.000
 43611,-0.01795840,-0.00212066,-0.00016217,-0.00098261,-0.00009973,-0.0
 1574459,-0.08141135,-0.06664728,0.00215368,0.00054527,-0.00235054,0.00
 220477,0.00109038,-0.00217556,0.01975835,0.08925682,0.06128150\\0.0000
 0058,-0.00000088,0.00000045,0.00000070,-0.00000191,0.00000226,-0.00000
 071,-0.00000100,0.00000248,0.00000012,-0.00000149,0.00000206,-0.000007
 06,0.00000200,-0.00000294,0.00000153,0.00000165,-0.00000215,-0.0000005
 1,-0.00000352,0.00000160,-0.00000202,-0.00000142,0.00000160,-0.0000007
 7,-0.00000190,0.00000118,0.00000719,-0.00000843,0.00001040,0.00000014,
 0.00000041,-0.00000040,-0.00000168,-0.00000159,0.00000135,0.00001688,-
 0.00000684,-0.00000617,0.00000217,-0.00000363,0.00000114,-0.00000380,0
 .00000624,0.00000104,-0.00000415,-0.00000030,-0.00002005,-0.00001542,0
 .00001709,0.00001733,-0.00000272,0.00000622,0.00001431,0.00000229,-0.0
 0001588,-0.00000626,-0.00000182,0.00000175,0.00000131,0.00000023,0.000
 00236,-0.00000316,0.00000392,0.00000074,-0.00001442,-0.00000098,0.0000
 0293,0.00000022,0.00000360,-0.00000267,0.00000409,-0.00000437,0.000001
 42,0.00000112,0.00000139,0.00000128,-0.00000249,0.00000078,-0.00000009
 ,0.00000010,0.00000052,-0.00000140,0.00000009,0.00000432,-0.00000417,0
 .00000682,0.00000307,0.00000039,-0.00000067,0.00000277,-0.00000028,-0.
 00000071,0.00000142,-0.00000032,-0.00000363,0.00000168,0.00000064,0.00
 000206,0.00000281,0.00000135,0.00000084,0.00000205,0.00000051,0.000000
 06,-0.00000040,-0.00000325,0.00000012,0.00000227,-0.00000017,-0.000000
 45,0.00000340,0.00000453,0.00000071,0.00000246,-0.00000046,-0.00000093
 ,-0.00000431,-0.00000104,-0.00000244,-0.00000051,0.00000003,-0.0000006
 4,0.00000037,-0.00000001,0.00000115,0.00000231,-0.00000085,-0.00000166
 ,0.00000085,0.00000118,0.00000147,0.00000074,0.00000334,-0.00000087,0.
 00000105,0.00000093,-0.00000073,-0.00000042,0.00000189,-0.00000155,0.0
 0000032,0.00000145,-0.00000176,-0.00000026,0.00000114,0.00000126,-0.00
 000323,-0.00000219,-0.00000141,-0.00000243,0.00000279,0.00000162,-0.00
 000287,0.00000329,-0.00000054,-0.00000071,0.00000112,-0.00000077,-0.00
 000297,-0.00000218,-0.00000228,-0.00000318,-0.00000212,0.00000091,-0.0
 0000053,-0.00000034,0.00000124,-0.00000122,0.00000121,-0.00000191,-0.0
 0000254,-0.00000013,-0.00000035,-0.00000234,0.00000060,-0.00000102\\\@
 The archive entry for this job was punched.


 TO DRY ONE'S EYES AND LAUGH AT A FALL
 AND BAFFLED, GET UP AND BEGIN AGAIN.
           R. BROWNING
 Job cpu time:       0 days  7 hours 47 minutes 20.1 seconds.
 Elapsed time:       0 days  0 hours 29 minutes 17.6 seconds.
 File lengths (MBytes):  RWF=   1580 Int=      0 D2E=      0 Chk=     33 Scr=      1
 Normal termination of Gaussian 16 at Wed Oct 27 03:54:02 2021.
