 Entering Gaussian System, Link 0=/home/rtong2/g16/g16
 Input=/home/rtong2/g16/093021/CH3CH2CCH2NCHCH3.gjf
 Output=/home/rtong2/g16/093021/CH3CH2CCH2NCHCH3.log
 Initial command:
 /home/rtong2/g16/l1.exe "/tmp/Gau-26185.inp" -scrdir="/tmp/"
 Default is to use a total of  16 processors:
                               16 via shared-memory
                                1 via Linda
 Entering Link 1 = /home/rtong2/g16/l1.exe PID=     26187.
  
 Copyright (c) 1988-2019, Gaussian, Inc.  All Rights Reserved.
  
 This is part of the Gaussian(R) 16 program.  It is based on
 the Gaussian(R) 09 system (copyright 2009, Gaussian, Inc.),
 the Gaussian(R) 03 system (copyright 2003, Gaussian, Inc.),
 the Gaussian(R) 98 system (copyright 1998, Gaussian, Inc.),
 the Gaussian(R) 94 system (copyright 1995, Gaussian, Inc.),
 the Gaussian 92(TM) system (copyright 1992, Gaussian, Inc.),
 the Gaussian 90(TM) system (copyright 1990, Gaussian, Inc.),
 the Gaussian 88(TM) system (copyright 1988, Gaussian, Inc.),
 the Gaussian 86(TM) system (copyright 1986, Carnegie Mellon
 University), and the Gaussian 82(TM) system (copyright 1983,
 Carnegie Mellon University). Gaussian is a federally registered
 trademark of Gaussian, Inc.
  
 This software contains proprietary and confidential information,
 including trade secrets, belonging to Gaussian, Inc.
  
 This software is provided under written license and may be
 used, copied, transmitted, or stored only in accord with that
 written license.
  
 The following legend is applicable only to US Government
 contracts under FAR:
  
                    RESTRICTED RIGHTS LEGEND
  
 Use, reproduction and disclosure by the US Government is
 subject to restrictions as set forth in subparagraphs (a)
 and (c) of the Commercial Computer Software - Restricted
 Rights clause in FAR 52.227-19.
  
 Gaussian, Inc.
 340 Quinnipiac St., Bldg. 40, Wallingford CT 06492
  
  
 ---------------------------------------------------------------
 Warning -- This program may not be used in any manner that
 competes with the business of Gaussian, Inc. or will provide
 assistance to any competitor of Gaussian, Inc.  The licensee
 of this program is prohibited from giving any competitor of
 Gaussian, Inc. access to this program.  By using this program,
 the user acknowledges that Gaussian, Inc. is engaged in the
 business of creating and licensing software in the field of
 computational chemistry and represents and warrants to the
 licensee that it is not a competitor of Gaussian, Inc. and that
 it will not use this program in any manner prohibited above.
 ---------------------------------------------------------------
  

 Cite this work as:
 Gaussian 16, Revision C.01,
 M. J. Frisch, G. W. Trucks, H. B. Schlegel, G. E. Scuseria, 
 M. A. Robb, J. R. Cheeseman, G. Scalmani, V. Barone, 
 G. A. Petersson, H. Nakatsuji, X. Li, M. Caricato, A. V. Marenich, 
 J. Bloino, B. G. Janesko, R. Gomperts, B. Mennucci, H. P. Hratchian, 
 J. V. Ortiz, A. F. Izmaylov, J. L. Sonnenberg, D. Williams-Young, 
 F. Ding, F. Lipparini, F. Egidi, J. Goings, B. Peng, A. Petrone, 
 T. Henderson, D. Ranasinghe, V. G. Zakrzewski, J. Gao, N. Rega, 
 G. Zheng, W. Liang, M. Hada, M. Ehara, K. Toyota, R. Fukuda, 
 J. Hasegawa, M. Ishida, T. Nakajima, Y. Honda, O. Kitao, H. Nakai, 
 T. Vreven, K. Throssell, J. A. Montgomery, Jr., J. E. Peralta, 
 F. Ogliaro, M. J. Bearpark, J. J. Heyd, E. N. Brothers, K. N. Kudin, 
 V. N. Staroverov, T. A. Keith, R. Kobayashi, J. Normand, 
 K. Raghavachari, A. P. Rendell, J. C. Burant, S. S. Iyengar, 
 J. Tomasi, M. Cossi, J. M. Millam, M. Klene, C. Adamo, R. Cammi, 
 J. W. Ochterski, R. L. Martin, K. Morokuma, O. Farkas, 
 J. B. Foresman, and D. J. Fox, Gaussian, Inc., Wallingford CT, 2019.
 
 ******************************************
 Gaussian 16:  ES64L-G16RevC.01  3-Jul-2019
                30-Sep-2021 
 ******************************************
 %mem=40GB
 %nprocshared=16
 Will use up to   16 processors via shared memory.
 %chk=/home/rtong2/g16/093021/bCH3CH2CCH2NCHCH3.chk
 ----------------------------------------------------
 # opt freq b3lyp/6-31g(d) scrf=(smd,solvent=toluene)
 ----------------------------------------------------
 1/18=20,19=15,26=3,38=1/1,3;
 2/9=110,12=2,17=6,18=5,40=1/2;
 3/5=1,6=6,7=1,11=2,25=1,30=1,70=32201,71=1,72=13,74=-5/1,2,3;
 4//1;
 5/5=2,38=5,53=13/2;
 6/7=2,8=2,9=2,10=2,28=1/1;
 7//1,2,3,16;
 1/18=20,19=15,26=3/3(2);
 2/9=110/2;
 99//99;
 2/9=110/2;
 3/5=1,6=6,7=1,11=2,25=1,30=1,70=32205,71=1,72=13,74=-5/1,2,3;
 4/5=5,16=3,69=1/1;
 5/5=2,38=5,53=13/2;
 7//1,2,3,16;
 1/18=20,19=15,26=3/3(-5);
 2/9=110/2;
 6/7=2,8=2,9=2,10=2,19=2,28=1/1;
 99/9=1/99;
 ----------------
 CH3CH2CCH2NCHCH3
 ----------------
 Symbolic Z-matrix:
 Charge =  0 Multiplicity = 1
 C                     2.16932  -1.2587   -0.09199 
 H                     2.05289  -2.20622   0.44661 
 H                     2.80781  -1.46051  -0.96172 
 H                     2.69368  -0.56356   0.56731 
 C                     0.82216  -0.69451  -0.56405 
 H                     1.00978   0.18372  -1.19871 
 H                     0.35521  -1.44028  -1.22411 
 C                    -0.24457  -0.27973   0.49745 
 C                    -1.57794  -0.12054  -0.29898 
 H                    -1.33651   0.34795  -1.264 
 H                    -1.93632  -1.13028  -0.5454 
 C                    -2.73013   0.6761    0.33067 
 H                    -3.61676   0.61247  -0.31301 
 H                    -3.00196   0.29992   1.31994 
 H                    -2.48595   1.73964   0.43307 
 C                     0.11018   1.06653   1.17116 
 H                     0.12344   1.85614   0.40277 
 H                    -0.68974   1.32422   1.87721 
 C                    -0.34428  -1.39947   1.56348 
 H                    -1.35481  -1.38958   2.01036 
 H                    -0.21962  -2.357     1.04374 
 N                     0.69444  -1.34072   2.5835 
 N                     1.37205   1.0281    1.90981 
 C                     1.87175   2.119     2.33639 
 H                     1.30742   3.02927   2.10747 
 C                     0.68831  -2.22259   3.49844 
 H                    -0.09348  -3.00107   3.54372 
 C                     1.73135  -2.27495   4.57409 
 H                     1.26864  -2.18649   5.56651 
 H                     2.25537  -3.24024   4.55622 
 H                     2.46089  -1.47067   4.44456 
 C                     3.15273   2.30545   3.11355 
 H                     4.00505   1.85787   2.5862 
 H                     3.36351   3.36667   3.27336 
 H                     3.09458   1.81799   4.09643 
 

 GradGradGradGradGradGradGradGradGradGradGradGradGradGradGradGradGradGrad
 Berny optimization.
 Initialization pass.
                           ----------------------------
                           !    Initial Parameters    !
                           ! (Angstroms and Degrees)  !
 --------------------------                            --------------------------
 ! Name  Definition              Value          Derivative Info.                !
 --------------------------------------------------------------------------------
 ! R1    R(1,2)                  1.0961         estimate D2E/DX2                !
 ! R2    R(1,3)                  1.0976         estimate D2E/DX2                !
 ! R3    R(1,4)                  1.0922         estimate D2E/DX2                !
 ! R4    R(1,5)                  1.5349         estimate D2E/DX2                !
 ! R5    R(5,6)                  1.0997         estimate D2E/DX2                !
 ! R6    R(5,7)                  1.1            estimate D2E/DX2                !
 ! R7    R(5,8)                  1.561          estimate D2E/DX2                !
 ! R8    R(8,9)                  1.5613         estimate D2E/DX2                !
 ! R9    R(8,16)                 1.5467         estimate D2E/DX2                !
 ! R10   R(8,19)                 1.5493         estimate D2E/DX2                !
 ! R11   R(9,10)                 1.0996         estimate D2E/DX2                !
 ! R12   R(9,11)                 1.0994         estimate D2E/DX2                !
 ! R13   R(9,12)                 1.5358         estimate D2E/DX2                !
 ! R14   R(12,13)                1.0975         estimate D2E/DX2                !
 ! R15   R(12,14)                1.0927         estimate D2E/DX2                !
 ! R16   R(12,15)                1.096          estimate D2E/DX2                !
 ! R17   R(16,17)                1.1019         estimate D2E/DX2                !
 ! R18   R(16,18)                1.0976         estimate D2E/DX2                !
 ! R19   R(16,23)                1.4627         estimate D2E/DX2                !
 ! R20   R(19,20)                1.105          estimate D2E/DX2                !
 ! R21   R(19,21)                1.0966         estimate D2E/DX2                !
 ! R22   R(19,22)                1.457          estimate D2E/DX2                !
 ! R23   R(22,26)                1.2708         estimate D2E/DX2                !
 ! R24   R(23,24)                1.2735         estimate D2E/DX2                !
 ! R25   R(24,25)                1.0952         estimate D2E/DX2                !
 ! R26   R(24,32)                1.5099         estimate D2E/DX2                !
 ! R27   R(26,27)                1.1042         estimate D2E/DX2                !
 ! R28   R(26,28)                1.4992         estimate D2E/DX2                !
 ! R29   R(28,29)                1.0986         estimate D2E/DX2                !
 ! R30   R(28,30)                1.0985         estimate D2E/DX2                !
 ! R31   R(28,31)                1.0936         estimate D2E/DX2                !
 ! R32   R(32,33)                1.0977         estimate D2E/DX2                !
 ! R33   R(32,34)                1.0937         estimate D2E/DX2                !
 ! R34   R(32,35)                1.0987         estimate D2E/DX2                !
 ! A1    A(2,1,3)              106.9902         estimate D2E/DX2                !
 ! A2    A(2,1,4)              107.7319         estimate D2E/DX2                !
 ! A3    A(2,1,5)              112.064          estimate D2E/DX2                !
 ! A4    A(3,1,4)              108.4245         estimate D2E/DX2                !
 ! A5    A(3,1,5)              109.5378         estimate D2E/DX2                !
 ! A6    A(4,1,5)              111.9055         estimate D2E/DX2                !
 ! A7    A(1,5,6)              108.7423         estimate D2E/DX2                !
 ! A8    A(1,5,7)              107.9342         estimate D2E/DX2                !
 ! A9    A(1,5,8)              119.229          estimate D2E/DX2                !
 ! A10   A(6,5,7)              105.5194         estimate D2E/DX2                !
 ! A11   A(6,5,8)              107.2681         estimate D2E/DX2                !
 ! A12   A(7,5,8)              107.3445         estimate D2E/DX2                !
 ! A13   A(5,8,9)              105.297          estimate D2E/DX2                !
 ! A14   A(5,8,16)             111.7622         estimate D2E/DX2                !
 ! A15   A(5,8,19)             108.6535         estimate D2E/DX2                !
 ! A16   A(9,8,16)             109.2289         estimate D2E/DX2                !
 ! A17   A(9,8,19)             111.699          estimate D2E/DX2                !
 ! A18   A(16,8,19)            110.13           estimate D2E/DX2                !
 ! A19   A(8,9,10)             107.6755         estimate D2E/DX2                !
 ! A20   A(8,9,11)             107.4028         estimate D2E/DX2                !
 ! A21   A(8,9,12)             118.9779         estimate D2E/DX2                !
 ! A22   A(10,9,11)            105.437          estimate D2E/DX2                !
 ! A23   A(10,9,12)            107.6697         estimate D2E/DX2                !
 ! A24   A(11,9,12)            108.8894         estimate D2E/DX2                !
 ! A25   A(9,12,13)            109.6063         estimate D2E/DX2                !
 ! A26   A(9,12,14)            112.2857         estimate D2E/DX2                !
 ! A27   A(9,12,15)            111.9941         estimate D2E/DX2                !
 ! A28   A(13,12,14)           108.0624         estimate D2E/DX2                !
 ! A29   A(13,12,15)           106.9205         estimate D2E/DX2                !
 ! A30   A(14,12,15)           107.7517         estimate D2E/DX2                !
 ! A31   A(8,16,17)            108.8298         estimate D2E/DX2                !
 ! A32   A(8,16,18)            108.5056         estimate D2E/DX2                !
 ! A33   A(8,16,23)            113.2651         estimate D2E/DX2                !
 ! A34   A(17,16,18)           106.8043         estimate D2E/DX2                !
 ! A35   A(17,16,23)           111.1379         estimate D2E/DX2                !
 ! A36   A(18,16,23)           108.0623         estimate D2E/DX2                !
 ! A37   A(8,19,20)            109.3098         estimate D2E/DX2                !
 ! A38   A(8,19,21)            107.3173         estimate D2E/DX2                !
 ! A39   A(8,19,22)            113.997          estimate D2E/DX2                !
 ! A40   A(20,19,21)           107.6656         estimate D2E/DX2                !
 ! A41   A(20,19,22)           111.6226         estimate D2E/DX2                !
 ! A42   A(21,19,22)           106.6169         estimate D2E/DX2                !
 ! A43   A(19,22,26)           118.2053         estimate D2E/DX2                !
 ! A44   A(16,23,24)           119.0245         estimate D2E/DX2                !
 ! A45   A(23,24,25)           116.0897         estimate D2E/DX2                !
 ! A46   A(23,24,32)           127.6705         estimate D2E/DX2                !
 ! A47   A(25,24,32)           116.239          estimate D2E/DX2                !
 ! A48   A(22,26,27)           121.4792         estimate D2E/DX2                !
 ! A49   A(22,26,28)           122.5103         estimate D2E/DX2                !
 ! A50   A(27,26,28)           116.0104         estimate D2E/DX2                !
 ! A51   A(26,28,29)           110.6286         estimate D2E/DX2                !
 ! A52   A(26,28,30)           110.542          estimate D2E/DX2                !
 ! A53   A(26,28,31)           110.699          estimate D2E/DX2                !
 ! A54   A(29,28,30)           106.6413         estimate D2E/DX2                !
 ! A55   A(29,28,31)           109.1945         estimate D2E/DX2                !
 ! A56   A(30,28,31)           109.0331         estimate D2E/DX2                !
 ! A57   A(24,32,33)           111.1696         estimate D2E/DX2                !
 ! A58   A(24,32,34)           111.011          estimate D2E/DX2                !
 ! A59   A(24,32,35)           111.1487         estimate D2E/DX2                !
 ! A60   A(33,32,34)           108.4335         estimate D2E/DX2                !
 ! A61   A(33,32,35)           106.8566         estimate D2E/DX2                !
 ! A62   A(34,32,35)           108.0592         estimate D2E/DX2                !
 ! D1    D(2,1,5,6)           -173.1657         estimate D2E/DX2                !
 ! D2    D(2,1,5,7)            -59.1623         estimate D2E/DX2                !
 ! D3    D(2,1,5,8)             63.532          estimate D2E/DX2                !
 ! D4    D(3,1,5,6)            -54.5849         estimate D2E/DX2                !
 ! D5    D(3,1,5,7)             59.4186         estimate D2E/DX2                !
 ! D6    D(3,1,5,8)           -177.8872         estimate D2E/DX2                !
 ! D7    D(4,1,5,6)             65.6904         estimate D2E/DX2                !
 ! D8    D(4,1,5,7)            179.6939         estimate D2E/DX2                !
 ! D9    D(4,1,5,8)            -57.6119         estimate D2E/DX2                !
 ! D10   D(1,5,8,9)           -165.5425         estimate D2E/DX2                !
 ! D11   D(1,5,8,16)            75.9789         estimate D2E/DX2                !
 ! D12   D(1,5,8,19)           -45.7478         estimate D2E/DX2                !
 ! D13   D(6,5,8,9)             70.4357         estimate D2E/DX2                !
 ! D14   D(6,5,8,16)           -48.0429         estimate D2E/DX2                !
 ! D15   D(6,5,8,19)          -169.7696         estimate D2E/DX2                !
 ! D16   D(7,5,8,9)            -42.5578         estimate D2E/DX2                !
 ! D17   D(7,5,8,16)          -161.0363         estimate D2E/DX2                !
 ! D18   D(7,5,8,19)            77.237          estimate D2E/DX2                !
 ! D19   D(5,8,9,10)           -39.0485         estimate D2E/DX2                !
 ! D20   D(5,8,9,11)            74.0711         estimate D2E/DX2                !
 ! D21   D(5,8,9,12)          -161.7757         estimate D2E/DX2                !
 ! D22   D(16,8,9,10)           81.1161         estimate D2E/DX2                !
 ! D23   D(16,8,9,11)         -165.7643         estimate D2E/DX2                !
 ! D24   D(16,8,9,12)          -41.611          estimate D2E/DX2                !
 ! D25   D(19,8,9,10)         -156.8053         estimate D2E/DX2                !
 ! D26   D(19,8,9,11)          -43.6858         estimate D2E/DX2                !
 ! D27   D(19,8,9,12)           80.4675         estimate D2E/DX2                !
 ! D28   D(5,8,16,17)           62.0733         estimate D2E/DX2                !
 ! D29   D(5,8,16,18)          177.9377         estimate D2E/DX2                !
 ! D30   D(5,8,16,23)          -62.0755         estimate D2E/DX2                !
 ! D31   D(9,8,16,17)          -54.0367         estimate D2E/DX2                !
 ! D32   D(9,8,16,18)           61.8277         estimate D2E/DX2                !
 ! D33   D(9,8,16,23)         -178.1855         estimate D2E/DX2                !
 ! D34   D(19,8,16,17)        -177.0548         estimate D2E/DX2                !
 ! D35   D(19,8,16,18)         -61.1904         estimate D2E/DX2                !
 ! D36   D(19,8,16,23)          58.7965         estimate D2E/DX2                !
 ! D37   D(5,8,19,20)         -152.9817         estimate D2E/DX2                !
 ! D38   D(5,8,19,21)          -36.49           estimate D2E/DX2                !
 ! D39   D(5,8,19,22)           81.3298         estimate D2E/DX2                !
 ! D40   D(9,8,19,20)          -37.2589         estimate D2E/DX2                !
 ! D41   D(9,8,19,21)           79.2328         estimate D2E/DX2                !
 ! D42   D(9,8,19,22)         -162.9474         estimate D2E/DX2                !
 ! D43   D(16,8,19,20)          84.3003         estimate D2E/DX2                !
 ! D44   D(16,8,19,21)        -159.208          estimate D2E/DX2                !
 ! D45   D(16,8,19,22)         -41.3882         estimate D2E/DX2                !
 ! D46   D(8,9,12,13)         -174.7738         estimate D2E/DX2                !
 ! D47   D(8,9,12,14)          -54.6618         estimate D2E/DX2                !
 ! D48   D(8,9,12,15)           66.7311         estimate D2E/DX2                !
 ! D49   D(10,9,12,13)          62.4961         estimate D2E/DX2                !
 ! D50   D(10,9,12,14)        -177.3919         estimate D2E/DX2                !
 ! D51   D(10,9,12,15)         -55.999          estimate D2E/DX2                !
 ! D52   D(11,9,12,13)         -51.3487         estimate D2E/DX2                !
 ! D53   D(11,9,12,14)          68.7633         estimate D2E/DX2                !
 ! D54   D(11,9,12,15)        -169.8438         estimate D2E/DX2                !
 ! D55   D(8,16,23,24)         169.5208         estimate D2E/DX2                !
 ! D56   D(17,16,23,24)         46.6395         estimate D2E/DX2                !
 ! D57   D(18,16,23,24)        -70.2399         estimate D2E/DX2                !
 ! D58   D(8,19,22,26)         180.0            estimate D2E/DX2                !
 ! D59   D(20,19,22,26)         55.541          estimate D2E/DX2                !
 ! D60   D(21,19,22,26)        -61.7786         estimate D2E/DX2                !
 ! D61   D(19,22,26,27)         -1.5665         estimate D2E/DX2                !
 ! D62   D(19,22,26,28)        178.3481         estimate D2E/DX2                !
 ! D63   D(16,23,24,25)         -0.3412         estimate D2E/DX2                !
 ! D64   D(16,23,24,32)        180.0            estimate D2E/DX2                !
 ! D65   D(23,24,32,33)         54.7278         estimate D2E/DX2                !
 ! D66   D(23,24,32,34)        175.5235         estimate D2E/DX2                !
 ! D67   D(23,24,32,35)        -64.1688         estimate D2E/DX2                !
 ! D68   D(25,24,32,33)       -124.9306         estimate D2E/DX2                !
 ! D69   D(25,24,32,34)         -4.1349         estimate D2E/DX2                !
 ! D70   D(25,24,32,35)        116.1728         estimate D2E/DX2                !
 ! D71   D(22,26,28,29)        121.0639         estimate D2E/DX2                !
 ! D72   D(22,26,28,30)       -121.042          estimate D2E/DX2                !
 ! D73   D(22,26,28,31)         -0.1196         estimate D2E/DX2                !
 ! D74   D(27,26,28,29)        -59.0172         estimate D2E/DX2                !
 ! D75   D(27,26,28,30)         58.8769         estimate D2E/DX2                !
 ! D76   D(27,26,28,31)        179.7994         estimate D2E/DX2                !
 --------------------------------------------------------------------------------
 Trust Radius=3.00D-01 FncErr=1.00D-07 GrdErr=1.00D-06 EigMax=2.50D+02 EigMin=1.00D-04
 Number of steps in this run=    182 maximum allowed number of steps=    210.
 GradGradGradGradGradGradGradGradGradGradGradGradGradGradGradGradGradGrad

                          Input orientation:                          
 ---------------------------------------------------------------------
 Center     Atomic      Atomic             Coordinates (Angstroms)
 Number     Number       Type             X           Y           Z
 ---------------------------------------------------------------------
      1          6           0        2.169316   -1.258704   -0.091989
      2          1           0        2.052886   -2.206218    0.446614
      3          1           0        2.807810   -1.460510   -0.961717
      4          1           0        2.693679   -0.563564    0.567314
      5          6           0        0.822164   -0.694506   -0.564047
      6          1           0        1.009780    0.183718   -1.198710
      7          1           0        0.355210   -1.440278   -1.224114
      8          6           0       -0.244566   -0.279726    0.497450
      9          6           0       -1.577937   -0.120543   -0.298978
     10          1           0       -1.336510    0.347955   -1.264000
     11          1           0       -1.936317   -1.130282   -0.545400
     12          6           0       -2.730135    0.676099    0.330670
     13          1           0       -3.616758    0.612470   -0.313014
     14          1           0       -3.001964    0.299923    1.319942
     15          1           0       -2.485952    1.739638    0.433073
     16          6           0        0.110178    1.066527    1.171161
     17          1           0        0.123436    1.856136    0.402768
     18          1           0       -0.689742    1.324221    1.877210
     19          6           0       -0.344284   -1.399470    1.563478
     20          1           0       -1.354809   -1.389578    2.010360
     21          1           0       -0.219621   -2.357005    1.043740
     22          7           0        0.694441   -1.340717    2.583499
     23          7           0        1.372054    1.028104    1.909813
     24          6           0        1.871751    2.118997    2.336392
     25          1           0        1.307416    3.029267    2.107472
     26          6           0        0.688312   -2.222588    3.498445
     27          1           0       -0.093477   -3.001068    3.543719
     28          6           0        1.731348   -2.274947    4.574091
     29          1           0        1.268643   -2.186487    5.566514
     30          1           0        2.255368   -3.240240    4.556219
     31          1           0        2.460891   -1.470669    4.444556
     32          6           0        3.152727    2.305454    3.113554
     33          1           0        4.005051    1.857873    2.586196
     34          1           0        3.363505    3.366669    3.273361
     35          1           0        3.094584    1.817991    4.096425
 ---------------------------------------------------------------------
                    Distance matrix (angstroms):
                    1          2          3          4          5
     1  C    0.000000
     2  H    1.096098   0.000000
     3  H    1.097646   1.763346   0.000000
     4  H    1.092181   1.767342   1.776366   0.000000
     5  C    1.534919   2.195766   2.165109   2.190821   0.000000
     6  H    2.156371   3.083335   2.447971   2.552017   1.099669
     7  H    2.146078   2.502019   2.466679   3.073480   1.099959
     8  C    2.670705   2.998707   3.583353   2.952750   1.561003
     9  C    3.921754   4.253096   4.633520   4.381031   2.481971
    10  H    4.030605   4.575806   4.531811   4.519625   2.497305
    11  H    4.132589   4.249173   4.773794   4.795432   2.792752
    12  C    5.284574   5.585560   6.074882   5.568709   3.911253
    13  H    6.085129   6.377060   6.781824   6.479170   4.634137
    14  H    5.582563   5.709199   6.485258   5.809683   4.377472
    15  H    5.562128   6.014234   6.341159   5.670215   4.226456
    16  C    3.352953   3.874266   4.267587   3.113889   2.572762
    17  H    3.759340   4.497490   4.479712   3.533861   2.815799
    18  H    4.327061   4.693891   5.295952   4.089878   3.510107
    19  C    3.013067   2.764896   4.039311   3.304588   2.526646
    20  H    4.105662   3.837263   5.115239   4.376636   3.442370
    21  H    2.864116   2.354481   3.740441   3.454089   2.536572
    22  N    3.056177   2.675956   4.129072   2.943793   3.215735
    23  N    3.142026   3.614598   4.062053   2.466252   3.064269
    24  C    4.170665   4.723511   4.956470   3.316826   4.174922
    25  H    4.895631   5.542967   5.641738   4.147559   4.608576
    26  C    4.001707   3.343053   4.996607   3.919870   4.342441
    27  H    4.623250   3.851068   5.575818   4.750648   4.799205
    28  C    4.795506   4.140553   5.698005   4.461970   5.452053
    29  H    5.804365   5.179653   6.746398   5.445788   6.325277
    30  H    5.053685   4.242530   5.824110   4.823699   5.895080
    31  H    4.550845   4.085467   5.417403   3.988738   5.326722
    32  C    4.893448   5.355129   5.559612   3.863331   5.287347
    33  H    4.500628   4.990551   5.003273   3.414518   5.154555
    34  H    5.843436   6.384770   6.445645   4.818515   6.138180
    35  H    5.278730   5.531773   6.034535   4.276348   5.761643
                    6          7          8          9         10
     6  H    0.000000
     7  H    1.751133   0.000000
     8  C    2.159889   2.161110   0.000000
     9  C    2.756514   2.516870   1.561254   0.000000
    10  H    2.352937   2.461968   2.165416   1.099565   0.000000
    11  H    3.291337   2.409948   2.161713   1.099424   1.749668
    12  C    4.070430   4.051637   2.668233   1.535792   2.143091
    13  H    4.730025   4.562939   3.581136   2.166632   2.484728
    14  H    4.738270   4.557537   2.935256   2.196713   3.074540
    15  H    4.159777   4.574968   3.017579   2.195601   2.477509
    16  C    2.684198   3.475838   1.546650   2.533807   2.922202
    17  H    2.479378   3.683314   2.169399   2.700810   2.680330
    18  H    3.694645   4.283992   2.162074   2.758990   3.352403
    19  C    3.459719   2.874305   1.549254   2.574159   3.468809
    20  H    4.285402   3.659038   2.180208   2.644480   3.706856
    21  H    3.604896   2.512763   2.148056   2.941032   3.726917
    22  N    4.090042   3.823991   2.521714   3.867971   4.666865
    23  N    3.241472   4.116840   2.513692   3.860128   4.227530
    24  C    4.121315   5.257901   3.689766   4.884778   5.137348
    25  H    4.372251   5.655351   3.993777   4.902812   5.054365
    26  C    5.287429   4.798492   3.694719   4.896417   5.778276
    27  H    5.818133   5.036826   4.087578   5.026666   5.989595
    28  C    6.315926   6.017443   4.950167   6.272131   7.097512
    29  H    7.173084   6.892301   5.623251   6.839235   7.737321
    30  H    6.811328   6.345291   5.611411   6.928180   7.723450
    31  H    6.057158   6.047201   4.931277   6.374644   7.093325
    32  C    5.262091   6.377458   5.006871   6.317438   6.568717
    33  H    5.108812   6.222346   5.195328   6.588484   6.755453
    34  H    5.972488   7.237669   5.832671   7.024251   7.196556
    35  H    5.920786   6.813855   5.338817   6.701488   7.108429
                   11         12         13         14         15
    11  H    0.000000
    12  C    2.158856   0.000000
    13  H    2.432092   1.097487   0.000000
    14  H    2.580812   1.092730   1.772625   0.000000
    15  H    3.081550   1.096004   1.762348   1.767932   0.000000
    16  C    3.458424   2.987681   4.037201   3.208621   2.781681
    17  H    3.749706   3.088778   4.006007   3.609866   2.612163
    18  H    3.667094   2.641032   3.724391   2.589615   2.341895
    19  C    2.656012   3.394125   4.275302   3.163940   3.964664
    20  H    2.633874   2.996647   3.810862   2.458497   3.682296
    21  H    2.641450   4.001358   4.711592   3.857070   4.721403
    22  N    4.093310   4.568425   5.548979   4.236944   4.922177
    23  N    4.651023   4.409710   5.477403   4.473279   4.191808
    24  C    5.776151   5.223238   6.277953   5.300500   4.770336
    25  H    5.904353   4.999624   5.995594   5.161422   4.342396
    26  C    4.943126   5.488439   6.410803   4.972633   5.930573
    27  H    4.859712   5.549523   6.351815   4.929607   6.154214
    28  C    6.400877   6.827893   7.798924   6.294736   7.144967
    29  H    6.981607   7.183222   8.140648   6.515650   7.474200
    30  H    6.931715   7.618938   8.546032   7.116586   8.017458
    31  H    6.659652   6.962716   7.994483   6.537660   7.132274
    32  C    7.147769   6.708748   7.773898   6.717100   6.268958
    33  H    7.350906   7.200466   8.249146   7.288956   6.839813
    34  H    7.930550   7.282241   8.316956   7.330756   6.703031
    35  H    7.453108   7.029379   8.120255   6.868864   6.675977
                   16         17         18         19         20
    16  C    0.000000
    17  H    1.101856   0.000000
    18  H    1.097626   1.765834   0.000000
    19  C    2.538029   3.487833   2.763379   0.000000
    20  H    2.980418   3.912060   2.797275   1.104972   0.000000
    21  H    3.441739   4.275404   3.803566   1.096604   1.777336
    22  N    2.851471   3.911713   3.084916   1.456999   2.128451
    23  N    1.462673   2.125057   2.083207   2.993138   3.645692
    24  C    2.359786   2.620038   2.720985   4.229399   4.777769
    25  H    2.482419   2.384127   2.636065   4.757915   5.159754
    26  C    4.070475   5.151532   4.136096   2.342621   2.661325
    27  H    4.713368   5.788355   4.673427   2.559175   2.557157
    28  C    5.037219   6.086967   5.107726   3.760120   4.108646
    29  H    5.589568   6.657219   5.456309   4.386938   4.490412
    30  H    5.882916   6.911537   6.056820   4.370712   4.789544
    31  H    4.762177   5.733008   4.932461   4.021776   4.526749
    32  C    3.816403   4.089848   4.154027   5.325250   5.931963
    33  H    4.218837   4.453572   4.777921   5.529281   6.293300
    34  H    4.504890   4.584764   4.748646   6.275945   6.817591
    35  H    4.246003   4.740494   4.414731   5.347307   5.868327
                   21         22         23         24         25
    21  H    0.000000
    22  N    2.058934   0.000000
    23  N    3.839592   2.554275   0.000000
    24  C    5.106797   3.662887   1.273466   0.000000
    25  H    5.698709   4.438367   2.011940   1.095203   0.000000
    26  C    2.620685   1.270771   3.682152   4.647607   5.468096
    27  H    2.584691   2.073549   4.588208   5.615588   6.355332
    28  C    4.034402   2.431135   4.258828   4.932926   5.865033
    29  H    4.764399   3.153318   4.869882   5.416145   6.258639
    30  H    4.386706   3.152190   5.099261   5.813451   6.797183
    31  H    4.419987   2.569195   3.722144   4.204420   5.200182
    32  C    6.115177   4.429299   2.500283   1.509851   2.222899
    33  H    6.163783   4.603382   2.842303   2.163691   2.979694
    34  H    7.111290   5.455208   3.360659   2.158687   2.387601
    35  H    6.142754   4.245829   2.893494   2.164173   2.935489
                   26         27         28         29         30
    26  C    0.000000
    27  H    1.104208   0.000000
    28  C    1.499227   2.217861   0.000000
    29  H    2.148254   2.571111   1.098555   0.000000
    30  H    2.147130   2.568936   1.098502   1.762021   0.000000
    31  H    2.145353   3.111016   1.093560   1.786796   1.784962
    32  C    5.169589   6.235549   5.013338   5.453836   5.800109
    33  H    5.336957   6.428382   5.118755   5.720758   5.738740
    34  H    6.200574   7.250648   6.015286   6.362747   6.820920
    35  H    4.740675   5.804528   4.340359   4.640158   5.147950
                   31         32         33         34         35
    31  H    0.000000
    32  C    4.063165   0.000000
    33  H    4.113044   1.097675   0.000000
    34  H    5.058286   1.093683   1.777707   0.000000
    35  H    3.367202   1.098653   1.763898   1.774305   0.000000
 Stoichiometry    C11H22N2
 Framework group  C1[X(C11H22N2)]
 Deg. of freedom    99
 Full point group                 C1      NOp   1
 Largest Abelian subgroup         C1      NOp   1
 Largest concise Abelian subgroup C1      NOp   1
                         Standard orientation:                         
 ---------------------------------------------------------------------
 Center     Atomic      Atomic             Coordinates (Angstroms)
 Number     Number       Type             X           Y           Z
 ---------------------------------------------------------------------
      1          6           0        0.002991   -0.264924    2.522581
      2          1           0       -0.326903   -1.301575    2.388584
      3          1           0        0.148407   -0.111287    3.599650
      4          1           0       -0.805961    0.387608    2.186936
      5          6           0        1.315818    0.022775    1.781169
      6          1           0        1.659508    1.032187    2.049939
      7          1           0        2.082421   -0.662766    2.171377
      8          6           0        1.349815   -0.078950    0.223855
      9          6           0        2.864368   -0.102500   -0.154412
     10          1           0        3.385241    0.602671    0.509266
     11          1           0        3.254025   -1.095866    0.110402
     12          6           0        3.276055    0.224602   -1.597386
     13          1           0        4.356546    0.072721   -1.715502
     14          1           0        2.763417   -0.406209   -2.327686
     15          1           0        3.070691    1.269686   -1.855941
     16          6           0        0.676569    1.142106   -0.445390
     17          1           0        1.234847    2.051285   -0.170065
     18          1           0        0.762973    1.034219   -1.534279
     19          6           0        0.632380   -1.383961   -0.203257
     20          1           0        1.040942   -1.725463   -1.171460
     21          1           0        0.870682   -2.147876    0.546533
     22          7           0       -0.820141   -1.276392   -0.241402
     23          7           0       -0.741956    1.273497   -0.113826
     24          6           0       -1.355399    2.341944   -0.436044
     25          1           0       -0.757979    3.105276   -0.945831
     26          6           0       -1.489566   -2.301432   -0.582023
     27          1           0       -0.993168   -3.245233   -0.868563
     28          6           0       -2.988316   -2.309278   -0.619006
     29          1           0       -3.349305   -2.550706   -1.628077
     30          1           0       -3.386380   -3.083370    0.051093
     31          1           0       -3.387499   -1.336867   -0.317437
     32          6           0       -2.805938    2.682504   -0.191903
     33          1           0       -3.061990    2.587193    0.871227
     34          1           0       -3.027729    3.704905   -0.510725
     35          1           0       -3.470773    2.002432   -0.741933
 ---------------------------------------------------------------------
 Rotational constants (GHZ):           0.7608772           0.5609311           0.4460213
 Standard basis: 6-31G(d) (6D, 7F)
 There are   239 symmetry adapted cartesian basis functions of A   symmetry.
 There are   239 symmetry adapted basis functions of A   symmetry.
   239 basis functions,   452 primitive gaussians,   239 cartesian basis functions
    51 alpha electrons       51 beta electrons
       nuclear repulsion energy       852.3490196724 Hartrees.
 NAtoms=   35 NActive=   35 NUniq=   35 SFac= 1.00D+00 NAtFMM=   60 NAOKFM=F Big=F
 Integral buffers will be    131072 words long.
 Raffenetti 2 integral format.
 Two-electron integral symmetry is turned on.
 ------------------------------------------------------------------------------
 Polarizable Continuum Model (PCM)
 =================================
 Model                : PCM.
 Atomic radii         : SMD-Coulomb.
 Polarization charges : Total charges.
 Charge compensation  : None.
 Solution method      : On-the-fly selection.
 Cavity type          : VdW (van der Waals Surface) (Alpha=1.000).
 Cavity algorithm     : GePol (No added spheres)
                        Default sphere list used, NSphG=   35.
                        Lebedev-Laikov grids with approx.  5.0 points / Ang**2.
                        Smoothing algorithm: York/Karplus (Gamma=1.0000).
                        Polarization charges: spherical gaussians, with
                                              point-specific exponents (IZeta= 3).
                        Self-potential: point-specific (ISelfS= 7).
                        Self-field    : sphere-specific E.n sum rule (ISelfD= 2).
 1st derivatives      : Analytical E(r).r(x)/FMM algorithm (CHGder, D1EAlg=3).
                        Cavity 1st derivative terms included.
 Solvent              : Toluene, Eps=   2.374100 Eps(inf)=   2.238315
 ------------------------------------------------------------------------------
 ------------------------------------------------------------------------------
 Atomic radii for non-electrostatic terms: SMD-CDS.
 ------------------------------------------------------------------------------
 Nuclear repulsion after PCM non-electrostatic terms =      852.3417959510 Hartrees.
 One-electron integrals computed using PRISM.
 NBasis=   239 RedAO= T EigKep=  2.53D-03  NBF=   239
 NBsUse=   239 1.00D-06 EigRej= -1.00D+00 NBFU=   239
 ExpMin= 1.61D-01 ExpMax= 4.17D+03 ExpMxC= 6.27D+02 IAcc=3 IRadAn=         5 AccDes= 0.00D+00
 Harris functional with IExCor=  402 and IRadAn=       5 diagonalized for initial guess.
 HarFok:  IExCor=  402 AccDes= 0.00D+00 IRadAn=         5 IDoV= 1 UseB2=F ITyADJ=14
 ICtDFT=  3500011 ScaDFX=  1.000000  1.000000  1.000000  1.000000
 FoFCou: FMM=F IPFlag=           0 FMFlag=      100000 FMFlg1=           0
         NFxFlg=           0 DoJE=T BraDBF=F KetDBF=T FulRan=T
         wScrn=  0.000000 ICntrl=       500 IOpCl=  0 I1Cent=   200000004 NGrid=           0
         NMat0=    1 NMatS0=      1 NMatT0=    0 NMatD0=    1 NMtDS0=    0 NMtDT0=    0
 Petite list used in FoFCou.
 Requested convergence on RMS density matrix=1.00D-08 within 128 cycles.
 Requested convergence on MAX density matrix=1.00D-06.
 Requested convergence on             energy=1.00D-06.
 No special actions if energy rises.
 Inv3:  Mode=1 IEnd=    16638075.
 Iteration    1 A*A^-1 deviation from unit magnitude is 6.66D-15 for   2338.
 Iteration    1 A*A^-1 deviation from orthogonality  is 4.05D-15 for   2342   1047.
 Iteration    1 A^-1*A deviation from unit magnitude is 6.88D-15 for   2338.
 Iteration    1 A^-1*A deviation from orthogonality  is 1.78D-15 for   2351   1861.
 Error on total polarization charges =  0.03321
 SCF Done:  E(RB3LYP) =  -541.874526216     A.U. after   12 cycles
            NFock= 12  Conv=0.69D-08     -V/T= 2.0099
 SMD-CDS (non-electrostatic) energy       (kcal/mol) =      -4.53
 (included in total energy above)

 **********************************************************************

            Population analysis using the SCF Density.

 **********************************************************************

 Orbital symmetries:
       Occupied  (A) (A) (A) (A) (A) (A) (A) (A) (A) (A) (A) (A)
                 (A) (A) (A) (A) (A) (A) (A) (A) (A) (A) (A) (A)
                 (A) (A) (A) (A) (A) (A) (A) (A) (A) (A) (A) (A)
                 (A) (A) (A) (A) (A) (A) (A) (A) (A) (A) (A) (A)
                 (A) (A) (A)
       Virtual   (A) (A) (A) (A) (A) (A) (A) (A) (A) (A) (A) (A)
                 (A) (A) (A) (A) (A) (A) (A) (A) (A) (A) (A) (A)
                 (A) (A) (A) (A) (A) (A) (A) (A) (A) (A) (A) (A)
                 (A) (A) (A) (A) (A) (A) (A) (A) (A) (A) (A) (A)
                 (A) (A) (A) (A) (A) (A) (A) (A) (A) (A) (A) (A)
                 (A) (A) (A) (A) (A) (A) (A) (A) (A) (A) (A) (A)
                 (A) (A) (A) (A) (A) (A) (A) (A) (A) (A) (A) (A)
                 (A) (A) (A) (A) (A) (A) (A) (A) (A) (A) (A) (A)
                 (A) (A) (A) (A) (A) (A) (A) (A) (A) (A) (A) (A)
                 (A) (A) (A) (A) (A) (A) (A) (A) (A) (A) (A) (A)
                 (A) (A) (A) (A) (A) (A) (A) (A) (A) (A) (A) (A)
                 (A) (A) (A) (A) (A) (A) (A) (A) (A) (A) (A) (A)
                 (A) (A) (A) (A) (A) (A) (A) (A) (A) (A) (A) (A)
                 (A) (A) (A) (A) (A) (A) (A) (A) (A) (A) (A) (A)
                 (A) (A) (A) (A) (A) (A) (A) (A) (A) (A) (A) (A)
                 (A) (A) (A) (A) (A) (A) (A) (A)
 The electronic state is 1-A.
 Alpha  occ. eigenvalues --  -14.30307 -14.30077 -10.21284 -10.20959 -10.19359
 Alpha  occ. eigenvalues --  -10.19324 -10.18263 -10.17560 -10.17379 -10.17255
 Alpha  occ. eigenvalues --  -10.16817 -10.16512 -10.15038  -0.90634  -0.89273
 Alpha  occ. eigenvalues --   -0.80785  -0.73903  -0.73077  -0.72954  -0.69008
 Alpha  occ. eigenvalues --   -0.65486  -0.63359  -0.58367  -0.54611  -0.53640
 Alpha  occ. eigenvalues --   -0.52081  -0.47505  -0.47281  -0.45530  -0.44176
 Alpha  occ. eigenvalues --   -0.42136  -0.41902  -0.40971  -0.40615  -0.39662
 Alpha  occ. eigenvalues --   -0.39161  -0.38553  -0.37959  -0.37541  -0.37281
 Alpha  occ. eigenvalues --   -0.37227  -0.35605  -0.33204  -0.32387  -0.30814
 Alpha  occ. eigenvalues --   -0.30485  -0.29735  -0.26939  -0.26374  -0.24337
 Alpha  occ. eigenvalues --   -0.19075
 Alpha virt. eigenvalues --    0.00308   0.01880   0.08903   0.11046   0.12395
 Alpha virt. eigenvalues --    0.12707   0.12930   0.13651   0.14460   0.15279
 Alpha virt. eigenvalues --    0.16077   0.16558   0.16714   0.17340   0.17786
 Alpha virt. eigenvalues --    0.18358   0.18445   0.19284   0.19832   0.20748
 Alpha virt. eigenvalues --    0.20969   0.21920   0.22111   0.22598   0.23468
 Alpha virt. eigenvalues --    0.24119   0.24600   0.25510   0.27524   0.28769
 Alpha virt. eigenvalues --    0.29587   0.30822   0.32451   0.33214   0.38589
 Alpha virt. eigenvalues --    0.40031   0.51017   0.52271   0.53071   0.53925
 Alpha virt. eigenvalues --    0.54377   0.55562   0.56585   0.57282   0.57668
 Alpha virt. eigenvalues --    0.58480   0.59251   0.60048   0.61145   0.61611
 Alpha virt. eigenvalues --    0.62506   0.63889   0.64974   0.65344   0.65648
 Alpha virt. eigenvalues --    0.69251   0.71876   0.72512   0.74346   0.75072
 Alpha virt. eigenvalues --    0.76337   0.77820   0.78398   0.79069   0.79907
 Alpha virt. eigenvalues --    0.81946   0.84714   0.85422   0.86016   0.86370
 Alpha virt. eigenvalues --    0.86742   0.88035   0.88595   0.89584   0.89927
 Alpha virt. eigenvalues --    0.90245   0.91068   0.91612   0.92279   0.92920
 Alpha virt. eigenvalues --    0.93695   0.94318   0.94728   0.95548   0.95978
 Alpha virt. eigenvalues --    0.97182   0.98758   0.98906   0.99962   1.00883
 Alpha virt. eigenvalues --    1.01355   1.04389   1.04851   1.06966   1.08355
 Alpha virt. eigenvalues --    1.11684   1.13641   1.19869   1.25454   1.27532
 Alpha virt. eigenvalues --    1.29823   1.31830   1.33495   1.35302   1.39471
 Alpha virt. eigenvalues --    1.40634   1.43737   1.44277   1.45272   1.45825
 Alpha virt. eigenvalues --    1.54098   1.59999   1.62942   1.63656   1.66773
 Alpha virt. eigenvalues --    1.67808   1.69335   1.71751   1.73369   1.74842
 Alpha virt. eigenvalues --    1.79401   1.83209   1.84649   1.85340   1.88291
 Alpha virt. eigenvalues --    1.89879   1.91479   1.93234   1.94485   1.96489
 Alpha virt. eigenvalues --    1.97852   1.99302   2.00552   2.01391   2.02656
 Alpha virt. eigenvalues --    2.06018   2.07169   2.08991   2.10520   2.13311
 Alpha virt. eigenvalues --    2.14340   2.16126   2.17748   2.18549   2.22478
 Alpha virt. eigenvalues --    2.24963   2.26342   2.27536   2.30086   2.31187
 Alpha virt. eigenvalues --    2.33348   2.34029   2.34635   2.35664   2.37877
 Alpha virt. eigenvalues --    2.38161   2.40770   2.41659   2.44222   2.44941
 Alpha virt. eigenvalues --    2.51031   2.54527   2.56502   2.60249   2.61274
 Alpha virt. eigenvalues --    2.70591   2.73224   2.74815   2.77342   2.80660
 Alpha virt. eigenvalues --    2.84857   2.92753   3.00581   3.04023   3.08620
 Alpha virt. eigenvalues --    4.01167   4.03281   4.10447   4.15691   4.16173
 Alpha virt. eigenvalues --    4.22321   4.31651   4.35136   4.38561   4.44194
 Alpha virt. eigenvalues --    4.51061   4.53385   4.75343
          Condensed to atoms (all electrons):
               1          2          3          4          5          6
     1  C    5.107565   0.376469   0.357149   0.369018   0.367398  -0.038445
     2  H    0.376469   0.578918  -0.033910  -0.028505  -0.032946   0.005107
     3  H    0.357149  -0.033910   0.614468  -0.028920  -0.029597  -0.004544
     4  H    0.369018  -0.028505  -0.028920   0.531264  -0.029218  -0.002956
     5  C    0.367398  -0.032946  -0.029597  -0.029218   5.046020   0.363008
     6  H   -0.038445   0.005107  -0.004544  -0.002956   0.363008   0.624857
     7  H   -0.043307  -0.004773  -0.003475   0.004833   0.369350  -0.038008
     8  C   -0.034222  -0.006702   0.004184  -0.004408   0.384607  -0.036887
     9  C    0.004225   0.000020  -0.000088   0.000093  -0.047201  -0.005903
    10  H    0.000256   0.000015  -0.000019  -0.000005  -0.006696   0.006396
    11  H   -0.000139  -0.000001   0.000001  -0.000001  -0.004842  -0.000208
    12  C   -0.000126  -0.000001   0.000001   0.000003   0.004295  -0.000151
    13  H    0.000001   0.000000  -0.000000   0.000000  -0.000084   0.000000
    14  H    0.000003  -0.000000   0.000000  -0.000000   0.000062  -0.000001
    15  H   -0.000001   0.000000   0.000000  -0.000000   0.000005   0.000008
    16  C   -0.000317  -0.000111  -0.000099  -0.000880  -0.052177  -0.007704
    17  H   -0.000366   0.000009   0.000009   0.000370  -0.007552   0.006098
    18  H   -0.000162   0.000004   0.000006   0.000084   0.005974   0.000029
    19  C   -0.005785   0.003861  -0.000154  -0.001082  -0.050526   0.006402
    20  H    0.000305   0.000066   0.000006  -0.000031   0.005388  -0.000236
    21  H    0.000279   0.001036  -0.000094   0.000089  -0.010745   0.000144
    22  N    0.000033   0.001839   0.000363  -0.000839  -0.004024  -0.000260
    23  N   -0.013703   0.000147   0.000264   0.020805   0.000397   0.000195
    24  C    0.000100  -0.000010   0.000006  -0.000329   0.000438  -0.000102
    25  H   -0.000090  -0.000000   0.000002   0.000268   0.000047   0.000015
    26  C   -0.000530   0.001260   0.000017   0.000114   0.000138   0.000005
    27  H    0.000041   0.000019   0.000002  -0.000006  -0.000049  -0.000001
    28  C   -0.000030  -0.000043  -0.000002  -0.000000   0.000009  -0.000000
    29  H    0.000000   0.000002   0.000000  -0.000000   0.000000  -0.000000
    30  H    0.000006  -0.000003  -0.000000   0.000000  -0.000000   0.000000
    31  H    0.000006   0.000011   0.000001   0.000061  -0.000005  -0.000000
    32  C    0.000083   0.000001  -0.000002  -0.000403  -0.000018  -0.000000
    33  H   -0.000017  -0.000002  -0.000001   0.000573  -0.000005   0.000001
    34  H   -0.000000  -0.000000   0.000000   0.000004   0.000000   0.000000
    35  H   -0.000010   0.000000   0.000000   0.000033   0.000001  -0.000000
               7          8          9         10         11         12
     1  C   -0.043307  -0.034222   0.004225   0.000256  -0.000139  -0.000126
     2  H   -0.004773  -0.006702   0.000020   0.000015  -0.000001  -0.000001
     3  H   -0.003475   0.004184  -0.000088  -0.000019   0.000001   0.000001
     4  H    0.004833  -0.004408   0.000093  -0.000005  -0.000001   0.000003
     5  C    0.369350   0.384607  -0.047201  -0.006696  -0.004842   0.004295
     6  H   -0.038008  -0.036887  -0.005903   0.006396  -0.000208  -0.000151
     7  H    0.626984  -0.039902  -0.006032  -0.000083   0.005684   0.000290
     8  C   -0.039902   4.880125   0.357851  -0.035779  -0.034451  -0.030036
     9  C   -0.006032   0.357851   5.070828   0.369036   0.366045   0.354183
    10  H   -0.000083  -0.035779   0.369036   0.609104  -0.037525  -0.042434
    11  H    0.005684  -0.034451   0.366045  -0.037525   0.610673  -0.038671
    12  C    0.000290  -0.030036   0.354183  -0.042434  -0.038671   5.101503
    13  H   -0.000015   0.003483  -0.026331  -0.002309  -0.004481   0.370011
    14  H   -0.000004  -0.003044  -0.034552   0.005231  -0.003298   0.374878
    15  H    0.000006  -0.006376  -0.031872  -0.005211   0.004952   0.377375
    16  C    0.005812   0.383167  -0.046941  -0.004431   0.005225  -0.006156
    17  H   -0.000057  -0.045633   0.000309   0.003616  -0.000147  -0.002138
    18  H   -0.000206  -0.040256  -0.007387  -0.000118  -0.000103   0.004392
    19  C   -0.006097   0.374460  -0.037264   0.005065  -0.007224  -0.004039
    20  H   -0.000177  -0.046015  -0.005292   0.000008   0.000764   0.001923
    21  H    0.004519  -0.044655  -0.001792  -0.000236   0.004402  -0.000031
    22  N    0.000008  -0.047858   0.002984  -0.000094   0.000133  -0.000006
    23  N   -0.000055  -0.046349   0.003366  -0.000043  -0.000081   0.000128
    24  C    0.000001   0.004572  -0.000175  -0.000007   0.000002   0.000013
    25  H   -0.000000  -0.000702   0.000023   0.000001  -0.000000  -0.000019
    26  C   -0.000007   0.004800  -0.000133   0.000003  -0.000011   0.000001
    27  H    0.000001  -0.000547   0.000001  -0.000000   0.000013  -0.000002
    28  C   -0.000000  -0.000102   0.000002  -0.000000  -0.000000   0.000000
    29  H   -0.000000   0.000003  -0.000000   0.000000  -0.000000  -0.000000
    30  H    0.000000  -0.000000  -0.000000   0.000000   0.000000   0.000000
    31  H    0.000000  -0.000009   0.000000  -0.000000   0.000000  -0.000000
    32  C   -0.000000  -0.000101   0.000002  -0.000000  -0.000000   0.000000
    33  H    0.000000   0.000008   0.000000   0.000000   0.000000  -0.000000
    34  H    0.000000   0.000000  -0.000000   0.000000   0.000000  -0.000000
    35  H   -0.000000  -0.000002  -0.000000  -0.000000  -0.000000   0.000000
              13         14         15         16         17         18
     1  C    0.000001   0.000003  -0.000001  -0.000317  -0.000366  -0.000162
     2  H    0.000000  -0.000000   0.000000  -0.000111   0.000009   0.000004
     3  H   -0.000000   0.000000   0.000000  -0.000099   0.000009   0.000006
     4  H    0.000000  -0.000000  -0.000000  -0.000880   0.000370   0.000084
     5  C   -0.000084   0.000062   0.000005  -0.052177  -0.007552   0.005974
     6  H    0.000000  -0.000001   0.000008  -0.007704   0.006098   0.000029
     7  H   -0.000015  -0.000004   0.000006   0.005812  -0.000057  -0.000206
     8  C    0.003483  -0.003044  -0.006376   0.383167  -0.045633  -0.040256
     9  C   -0.026331  -0.034552  -0.031872  -0.046941   0.000309  -0.007387
    10  H   -0.002309   0.005231  -0.005211  -0.004431   0.003616  -0.000118
    11  H   -0.004481  -0.003298   0.004952   0.005225  -0.000147  -0.000103
    12  C    0.370011   0.374878   0.377375  -0.006156  -0.002138   0.004392
    13  H    0.575194  -0.029887  -0.031813   0.000282  -0.000053   0.000056
    14  H   -0.029887   0.569188  -0.032497  -0.001957   0.000206   0.001304
    15  H   -0.031813  -0.032497   0.569218   0.003030   0.001761   0.000844
    16  C    0.000282  -0.001957   0.003030   5.047839   0.341970   0.350608
    17  H   -0.000053   0.000206   0.001761   0.341970   0.628472  -0.032823
    18  H    0.000056   0.001304   0.000844   0.350608  -0.032823   0.610511
    19  C    0.000001   0.001289   0.000060  -0.062746   0.005828  -0.005779
    20  H   -0.000156   0.004246  -0.000048  -0.002370  -0.000205   0.002362
    21  H   -0.000001  -0.000083  -0.000006   0.006521  -0.000204  -0.000097
    22  N    0.000001  -0.000124   0.000002   0.006397  -0.000091  -0.000308
    23  N   -0.000002  -0.000017  -0.000001   0.244959  -0.029994  -0.032359
    24  C   -0.000000  -0.000001  -0.000008  -0.028379  -0.015879  -0.011355
    25  H    0.000000   0.000000   0.000046  -0.025008   0.014831   0.006576
    26  C   -0.000000  -0.000003  -0.000000   0.000472   0.000009  -0.000004
    27  H   -0.000000   0.000001  -0.000000   0.000086  -0.000001  -0.000010
    28  C    0.000000  -0.000000   0.000000  -0.000071   0.000000   0.000003
    29  H    0.000000   0.000000   0.000000  -0.000001  -0.000000   0.000000
    30  H   -0.000000  -0.000000  -0.000000   0.000001   0.000000  -0.000000
    31  H    0.000000  -0.000000   0.000000   0.000001   0.000000   0.000003
    32  C   -0.000000  -0.000000  -0.000000   0.007607  -0.000508  -0.000424
    33  H   -0.000000   0.000000   0.000000  -0.000172   0.000079  -0.000014
    34  H    0.000000   0.000000   0.000000  -0.000257   0.000034   0.000013
    35  H    0.000000  -0.000000   0.000000  -0.000121  -0.000013   0.000090
              19         20         21         22         23         24
     1  C   -0.005785   0.000305   0.000279   0.000033  -0.013703   0.000100
     2  H    0.003861   0.000066   0.001036   0.001839   0.000147  -0.000010
     3  H   -0.000154   0.000006  -0.000094   0.000363   0.000264   0.000006
     4  H   -0.001082  -0.000031   0.000089  -0.000839   0.020805  -0.000329
     5  C   -0.050526   0.005388  -0.010745  -0.004024   0.000397   0.000438
     6  H    0.006402  -0.000236   0.000144  -0.000260   0.000195  -0.000102
     7  H   -0.006097  -0.000177   0.004519   0.000008  -0.000055   0.000001
     8  C    0.374460  -0.046015  -0.044655  -0.047858  -0.046349   0.004572
     9  C   -0.037264  -0.005292  -0.001792   0.002984   0.003366  -0.000175
    10  H    0.005065   0.000008  -0.000236  -0.000094  -0.000043  -0.000007
    11  H   -0.007224   0.000764   0.004402   0.000133  -0.000081   0.000002
    12  C   -0.004039   0.001923  -0.000031  -0.000006   0.000128   0.000013
    13  H    0.000001  -0.000156  -0.000001   0.000001  -0.000002  -0.000000
    14  H    0.001289   0.004246  -0.000083  -0.000124  -0.000017  -0.000001
    15  H    0.000060  -0.000048  -0.000006   0.000002  -0.000001  -0.000008
    16  C   -0.062746  -0.002370   0.006521   0.006397   0.244959  -0.028379
    17  H    0.005828  -0.000205  -0.000204  -0.000091  -0.029994  -0.015879
    18  H   -0.005779   0.002362  -0.000097  -0.000308  -0.032359  -0.011355
    19  C    5.094325   0.344010   0.345943   0.236194  -0.002239   0.000548
    20  H    0.344010   0.620312  -0.028739  -0.029858  -0.000520   0.000004
    21  H    0.345943  -0.028739   0.619773  -0.033932  -0.000513   0.000010
    22  N    0.236194  -0.029858  -0.033932   6.735414  -0.034692   0.000400
    23  N   -0.002239  -0.000520  -0.000513  -0.034692   6.771810   0.545933
    24  C    0.000548   0.000004   0.000010   0.000400   0.545933   4.824568
    25  H   -0.000012  -0.000006  -0.000001  -0.000161  -0.048863   0.327856
    26  C   -0.043753  -0.011809  -0.013983   0.599739   0.001059  -0.000058
    27  H   -0.024272   0.010324   0.008959  -0.050411  -0.000117   0.000001
    28  C    0.009875  -0.000518  -0.000654  -0.069893   0.000171   0.000022
    29  H   -0.000237   0.000080  -0.000022   0.000488   0.000000  -0.000000
    30  H   -0.000257  -0.000016   0.000117   0.000285  -0.000003  -0.000000
    31  H   -0.000327   0.000044   0.000048   0.006094   0.000584  -0.000069
    32  C   -0.000012   0.000000   0.000000   0.000209  -0.063440   0.351358
    33  H    0.000002  -0.000000  -0.000000  -0.000047  -0.000994  -0.025316
    34  H    0.000000  -0.000000  -0.000000  -0.000001   0.003086  -0.019907
    35  H   -0.000004   0.000000   0.000000   0.000119  -0.002408  -0.026187
              25         26         27         28         29         30
     1  C   -0.000090  -0.000530   0.000041  -0.000030   0.000000   0.000006
     2  H   -0.000000   0.001260   0.000019  -0.000043   0.000002  -0.000003
     3  H    0.000002   0.000017   0.000002  -0.000002   0.000000  -0.000000
     4  H    0.000268   0.000114  -0.000006  -0.000000  -0.000000   0.000000
     5  C    0.000047   0.000138  -0.000049   0.000009   0.000000  -0.000000
     6  H    0.000015   0.000005  -0.000001  -0.000000  -0.000000   0.000000
     7  H   -0.000000  -0.000007   0.000001  -0.000000  -0.000000   0.000000
     8  C   -0.000702   0.004800  -0.000547  -0.000102   0.000003  -0.000000
     9  C    0.000023  -0.000133   0.000001   0.000002  -0.000000  -0.000000
    10  H    0.000001   0.000003  -0.000000  -0.000000   0.000000   0.000000
    11  H   -0.000000  -0.000011   0.000013  -0.000000  -0.000000   0.000000
    12  C   -0.000019   0.000001  -0.000002   0.000000  -0.000000   0.000000
    13  H    0.000000  -0.000000  -0.000000   0.000000   0.000000  -0.000000
    14  H    0.000000  -0.000003   0.000001  -0.000000   0.000000  -0.000000
    15  H    0.000046  -0.000000  -0.000000   0.000000   0.000000  -0.000000
    16  C   -0.025008   0.000472   0.000086  -0.000071  -0.000001   0.000001
    17  H    0.014831   0.000009  -0.000001   0.000000  -0.000000   0.000000
    18  H    0.006576  -0.000004  -0.000010   0.000003   0.000000  -0.000000
    19  C   -0.000012  -0.043753  -0.024272   0.009875  -0.000237  -0.000257
    20  H   -0.000006  -0.011809   0.010324  -0.000518   0.000080  -0.000016
    21  H   -0.000001  -0.013983   0.008959  -0.000654  -0.000022   0.000117
    22  N   -0.000161   0.599739  -0.050411  -0.069893   0.000488   0.000285
    23  N   -0.048863   0.001059  -0.000117   0.000171   0.000000  -0.000003
    24  C    0.327856  -0.000058   0.000001   0.000022  -0.000000  -0.000000
    25  H    0.716643   0.000004  -0.000000   0.000001  -0.000000  -0.000000
    26  C    0.000004   4.777897   0.320039   0.353486  -0.026922  -0.026632
    27  H   -0.000000   0.320039   0.720099  -0.092216   0.002477   0.002538
    28  C    0.000001   0.353486  -0.092216   5.227449   0.358956   0.359236
    29  H   -0.000000  -0.026922   0.002477   0.358956   0.559300  -0.032616
    30  H   -0.000000  -0.026632   0.002538   0.359236  -0.032616   0.557394
    31  H    0.000003  -0.026231   0.006007   0.353872  -0.023015  -0.022865
    32  C   -0.094195   0.000005   0.000000  -0.000042   0.000000   0.000000
    33  H    0.005097  -0.000000  -0.000000  -0.000001  -0.000000  -0.000000
    34  H    0.000853  -0.000000  -0.000000   0.000001  -0.000000  -0.000000
    35  H    0.004231   0.000010   0.000000  -0.000028  -0.000001  -0.000000
              31         32         33         34         35
     1  C    0.000006   0.000083  -0.000017  -0.000000  -0.000010
     2  H    0.000011   0.000001  -0.000002  -0.000000   0.000000
     3  H    0.000001  -0.000002  -0.000001   0.000000   0.000000
     4  H    0.000061  -0.000403   0.000573   0.000004   0.000033
     5  C   -0.000005  -0.000018  -0.000005   0.000000   0.000001
     6  H   -0.000000  -0.000000   0.000001   0.000000  -0.000000
     7  H    0.000000  -0.000000   0.000000   0.000000  -0.000000
     8  C   -0.000009  -0.000101   0.000008   0.000000  -0.000002
     9  C    0.000000   0.000002   0.000000  -0.000000  -0.000000
    10  H   -0.000000  -0.000000   0.000000   0.000000  -0.000000
    11  H    0.000000  -0.000000   0.000000   0.000000  -0.000000
    12  C   -0.000000   0.000000  -0.000000  -0.000000   0.000000
    13  H    0.000000  -0.000000  -0.000000   0.000000   0.000000
    14  H   -0.000000  -0.000000   0.000000   0.000000  -0.000000
    15  H    0.000000  -0.000000   0.000000   0.000000   0.000000
    16  C    0.000001   0.007607  -0.000172  -0.000257  -0.000121
    17  H    0.000000  -0.000508   0.000079   0.000034  -0.000013
    18  H    0.000003  -0.000424  -0.000014   0.000013   0.000090
    19  C   -0.000327  -0.000012   0.000002   0.000000  -0.000004
    20  H    0.000044   0.000000  -0.000000  -0.000000   0.000000
    21  H    0.000048   0.000000  -0.000000  -0.000000   0.000000
    22  N    0.006094   0.000209  -0.000047  -0.000001   0.000119
    23  N    0.000584  -0.063440  -0.000994   0.003086  -0.002408
    24  C   -0.000069   0.351358  -0.025316  -0.019907  -0.026187
    25  H    0.000003  -0.094195   0.005097   0.000853   0.004231
    26  C   -0.026231   0.000005  -0.000000  -0.000000   0.000010
    27  H    0.006007   0.000000  -0.000000  -0.000000   0.000000
    28  C    0.353872  -0.000042  -0.000001   0.000001  -0.000028
    29  H   -0.023015   0.000000  -0.000000  -0.000000  -0.000001
    30  H   -0.022865   0.000000  -0.000000  -0.000000  -0.000000
    31  H    0.529384   0.000105   0.000019  -0.000001   0.000615
    32  C    0.000105   5.209084   0.361471   0.357906   0.364841
    33  H    0.000019   0.361471   0.532719  -0.026905  -0.023170
    34  H   -0.000001   0.357906  -0.026905   0.555443  -0.028109
    35  H    0.000615   0.364841  -0.023170  -0.028109   0.532284
 Mulliken charges:
               1
     1  C   -0.445689
     2  H    0.138226
     3  H    0.124423
     4  H    0.169972
     5  C   -0.271454
     6  H    0.123143
     7  H    0.124711
     8  C    0.106777
     9  C   -0.278005
    10  H    0.136260
    11  H    0.133289
    12  C   -0.465189
    13  H    0.146103
    14  H    0.149058
    15  H    0.150526
    16  C   -0.164079
    17  H    0.132063
    18  H    0.148546
    19  C   -0.176054
    20  H    0.136156
    21  H    0.143948
    22  N   -0.318100
    23  N   -0.316510
    24  C    0.071950
    25  H    0.092562
    26  C    0.091021
    27  H    0.097022
    28  C   -0.499484
    29  H    0.161509
    30  H    0.162816
    31  H    0.175663
    32  C   -0.493527
    33  H    0.176678
    34  H    0.157840
    35  H    0.177829
 Sum of Mulliken charges =  -0.00000
 Mulliken charges with hydrogens summed into heavy atoms:
               1
     1  C   -0.013068
     5  C   -0.023600
     8  C    0.106777
     9  C   -0.008455
    12  C   -0.019502
    16  C    0.116530
    19  C    0.104050
    22  N   -0.318100
    23  N   -0.316510
    24  C    0.164512
    26  C    0.188043
    28  C    0.000504
    32  C    0.018819
 Electronic spatial extent (au):  <R**2>=           3067.8017
 Charge=             -0.0000 electrons
 Dipole moment (field-independent basis, Debye):
    X=              0.1285    Y=             -0.2043    Z=             -1.2340  Tot=              1.2573
 Quadrupole moment (field-independent basis, Debye-Ang):
   XX=            -77.7920   YY=            -74.8390   ZZ=            -83.8547
   XY=             -0.0484   XZ=              1.1377   YZ=              0.2719
 Traceless Quadrupole moment (field-independent basis, Debye-Ang):
   XX=              1.0366   YY=              3.9896   ZZ=             -5.0261
   XY=             -0.0484   XZ=              1.1377   YZ=              0.2719
 Octapole moment (field-independent basis, Debye-Ang**2):
  XXX=            -19.7598  YYY=             -0.4640  ZZZ=             -5.0924  XYY=            -16.8082
  XXY=              0.9389  XXZ=             -3.7338  XZZ=             -3.5254  YZZ=             -0.9213
  YYZ=             -4.7502  XYZ=             -1.2763
 Hexadecapole moment (field-independent basis, Debye-Ang**3):
 XXXX=          -2040.6737 YYYY=          -1308.9742 ZZZZ=           -763.0481 XXXY=             -2.7130
 XXXZ=              8.2320 YYYX=             -1.0556 YYYZ=             -3.4126 ZZZX=              6.2953
 ZZZY=              8.2651 XXYY=           -532.9508 XXZZ=           -475.1014 YYZZ=           -350.3261
 XXYZ=              4.6575 YYXZ=              8.4473 ZZXY=              1.0284
 N-N= 8.523417959510D+02 E-N=-2.960171583185D+03  KE= 5.365745503122D+02
 D1PCM: PCM CHGder 1st derivatives, ID1Alg=3 FixD1E=F DoIter=F DoCFld=F I1PDM=0.
 Calling FoFJK, ICntrl=      2127 FMM=F ISym2X=0 I1Cent= 0 IOpClX= 0 NMat=1 NMatS=1 NMatT=0.
 ***** Axes restored to original set *****
 -------------------------------------------------------------------
 Center     Atomic                   Forces (Hartrees/Bohr)
 Number     Number              X              Y              Z
 -------------------------------------------------------------------
      1        6           0.000591333   -0.000274002   -0.000305484
      2        1           0.000403080    0.001089413   -0.000064400
      3        1          -0.000186965    0.000049488   -0.000864479
      4        1          -0.000868007   -0.000431711    0.000371581
      5        6           0.001277310    0.003705623   -0.001097992
      6        1           0.000647021    0.000022496   -0.000844681
      7        1          -0.000519977   -0.000230514    0.000063092
      8        6           0.010143311    0.001383733    0.000289119
      9        6           0.000705686   -0.001929360    0.000740525
     10        1           0.000193085   -0.000238440    0.000707892
     11        1          -0.000265809   -0.000099846   -0.000120673
     12        6           0.002631466   -0.000254821   -0.001133237
     13        1          -0.000044279   -0.000595199    0.001238538
     14        1          -0.001788639   -0.000983480    0.002203093
     15        1          -0.000059599   -0.000374365    0.000374645
     16        6           0.001670777   -0.001213335    0.002810128
     17        1           0.000417874    0.001134295    0.000491957
     18        1          -0.000871502    0.000453093    0.000518983
     19        6          -0.007614866   -0.002593004   -0.003661652
     20        1           0.002923179   -0.000856848    0.001572842
     21        1          -0.006934478   -0.002480726   -0.002111020
     22        7          -0.001330174   -0.013176985    0.011743894
     23        7           0.024767164    0.011341905   -0.000158056
     24        6          -0.019274177    0.002614640   -0.011605448
     25        1           0.000901687    0.012285924    0.003868851
     26        6          -0.004115447    0.002889182   -0.004045240
     27        1          -0.000739838   -0.001906125    0.001782616
     28        6           0.000273187    0.000118667    0.000140944
     29        1          -0.000014886   -0.000058318    0.000160044
     30        1           0.000035901   -0.000223447    0.000080034
     31        1          -0.000457275    0.000092253   -0.000427311
     32        6          -0.000440682   -0.009256550   -0.001342791
     33        1          -0.000489463   -0.000245506    0.000119956
     34        1          -0.001083192    0.000088619   -0.000841437
     35        1          -0.000482804    0.000153252   -0.000654834
 -------------------------------------------------------------------
 Cartesian Forces:  Max     0.024767164 RMS     0.004567538

 GradGradGradGradGradGradGradGradGradGradGradGradGradGradGradGradGradGrad
 Berny optimization.
 FormGI is forming the generalized inverse of G from B-inverse, IUseBI=4.
 Internal  Forces:  Max     0.036748960 RMS     0.006943824
 Search for a local minimum.
 Step number   1 out of a maximum of  182
 All quantities printed in internal units (Hartrees-Bohrs-Radians)
 Mixed Optimization -- RFO/linear search
 Second derivative matrix not updated -- first step.
 ITU=  0
     Eigenvalues ---    0.00230   0.00230   0.00230   0.00230   0.00292
     Eigenvalues ---    0.00304   0.00636   0.00776   0.00863   0.00938
     Eigenvalues ---    0.01317   0.01485   0.02862   0.02874   0.03366
     Eigenvalues ---    0.03401   0.04332   0.04492   0.04560   0.04622
     Eigenvalues ---    0.04623   0.04652   0.05234   0.05258   0.05304
     Eigenvalues ---    0.05574   0.05591   0.05843   0.05895   0.07108
     Eigenvalues ---    0.07171   0.07242   0.07388   0.09367   0.09407
     Eigenvalues ---    0.11495   0.11586   0.12925   0.12950   0.13909
     Eigenvalues ---    0.13965   0.14024   0.14836   0.16000   0.16000
     Eigenvalues ---    0.16000   0.16000   0.16000   0.16000   0.16000
     Eigenvalues ---    0.16000   0.16000   0.16000   0.16000   0.16000
     Eigenvalues ---    0.16000   0.16000   0.22000   0.22000   0.22003
     Eigenvalues ---    0.22012   0.22039   0.22091   0.25000   0.25000
     Eigenvalues ---    0.26716   0.26736   0.27715   0.27938   0.28895
     Eigenvalues ---    0.28974   0.31365   0.32459   0.33138   0.33221
     Eigenvalues ---    0.33478   0.33687   0.33719   0.33730   0.33746
     Eigenvalues ---    0.33832   0.33842   0.33848   0.33940   0.33944
     Eigenvalues ---    0.33946   0.33962   0.34060   0.34117   0.34128
     Eigenvalues ---    0.34218   0.34390   0.34404   0.34499   0.34562
     Eigenvalues ---    0.36632   0.37343   0.75136   0.76011
 RFO step:  Lambda=-4.59053912D-02 EMin= 2.30000000D-03
 Linear search not attempted -- first point.
 Maximum step size (   0.300) exceeded in Quadratic search.
    -- Step size scaled by   0.848
 Iteration  1 RMS(Cart)=  0.37538937 RMS(Int)=  0.01200526
 Iteration  2 RMS(Cart)=  0.04613487 RMS(Int)=  0.00108199
 Iteration  3 RMS(Cart)=  0.00098948 RMS(Int)=  0.00106444
 Iteration  4 RMS(Cart)=  0.00000132 RMS(Int)=  0.00106444
 Iteration  5 RMS(Cart)=  0.00000000 RMS(Int)=  0.00106444
 Variable       Old X    -DE/DX   Delta X   Delta X   Delta X     New X
                                 (Linear)    (Quad)   (Total)
    R1        2.07133  -0.00102   0.00000  -0.00224  -0.00224   2.06909
    R2        2.07425   0.00057   0.00000   0.00125   0.00125   2.07550
    R3        2.06392  -0.00046   0.00000  -0.00100  -0.00100   2.06292
    R4        2.90058  -0.00048   0.00000  -0.00121  -0.00121   2.89937
    R5        2.07807   0.00062   0.00000   0.00137   0.00137   2.07945
    R6        2.07862   0.00034   0.00000   0.00074   0.00074   2.07936
    R7        2.94987   0.00175   0.00000   0.00472   0.00472   2.95459
    R8        2.95034  -0.00367   0.00000  -0.00995  -0.00995   2.94039
    R9        2.92275   0.01334   0.00000   0.03477   0.03477   2.95751
   R10        2.92767   0.01791   0.00000   0.04700   0.04700   2.97467
   R11        2.07788  -0.00068   0.00000  -0.00150  -0.00150   2.07638
   R12        2.07761   0.00020   0.00000   0.00045   0.00045   2.07806
   R13        2.90223  -0.00060   0.00000  -0.00153  -0.00153   2.90070
   R14        2.07395  -0.00066   0.00000  -0.00144  -0.00144   2.07251
   R15        2.06496   0.00278   0.00000   0.00603   0.00603   2.07099
   R16        2.07115  -0.00034   0.00000  -0.00075  -0.00075   2.07040
   R17        2.08221   0.00047   0.00000   0.00105   0.00105   2.08326
   R18        2.07421   0.00108   0.00000   0.00237   0.00237   2.07658
   R19        2.76405  -0.00244   0.00000  -0.00503  -0.00503   2.75902
   R20        2.08809  -0.00205   0.00000  -0.00460  -0.00460   2.08349
   R21        2.07228   0.00238   0.00000   0.00522   0.00522   2.07751
   R22        2.75333   0.00157   0.00000   0.00317   0.00317   2.75650
   R23        2.40141  -0.00227   0.00000  -0.00239  -0.00239   2.39902
   R24        2.40650  -0.00686   0.00000  -0.00729  -0.00729   2.39921
   R25        2.06963   0.00894   0.00000   0.01953   0.01953   2.08916
   R26        2.85320  -0.00466   0.00000  -0.01099  -0.01099   2.84221
   R27        2.08665   0.00194   0.00000   0.00436   0.00436   2.09101
   R28        2.83313  -0.00015   0.00000  -0.00035  -0.00035   2.83278
   R29        2.07597   0.00014   0.00000   0.00031   0.00031   2.07628
   R30        2.07587   0.00022   0.00000   0.00048   0.00048   2.07635
   R31        2.06653  -0.00019   0.00000  -0.00041  -0.00041   2.06612
   R32        2.07431  -0.00034   0.00000  -0.00076  -0.00076   2.07355
   R33        2.06676  -0.00025   0.00000  -0.00053  -0.00053   2.06623
   R34        2.07615  -0.00062   0.00000  -0.00137  -0.00137   2.07478
    A1        1.86733   0.00028   0.00000   0.00176   0.00176   1.86909
    A2        1.88028  -0.00037   0.00000  -0.00245  -0.00245   1.87783
    A3        1.95589   0.00065   0.00000   0.00246   0.00246   1.95834
    A4        1.89236   0.00081   0.00000   0.00372   0.00372   1.89609
    A5        1.91180  -0.00082   0.00000  -0.00287  -0.00287   1.90893
    A6        1.95312  -0.00049   0.00000  -0.00234  -0.00234   1.95078
    A7        1.89791  -0.00124   0.00000  -0.00534  -0.00534   1.89257
    A8        1.88381   0.00002   0.00000   0.00100   0.00101   1.88481
    A9        2.08094   0.00167   0.00000   0.00565   0.00565   2.08659
   A10        1.84166   0.00019   0.00000  -0.00055  -0.00055   1.84111
   A11        1.87218   0.00020   0.00000   0.00200   0.00200   1.87418
   A12        1.87351  -0.00096   0.00000  -0.00338  -0.00338   1.87013
   A13        1.83778   0.00822   0.00000   0.00662   0.00633   1.84411
   A14        1.95062  -0.00945   0.00000  -0.02162  -0.02634   1.92428
   A15        1.89636   0.00295   0.00000   0.03731   0.03449   1.93085
   A16        1.90640  -0.00585   0.00000  -0.04694  -0.04407   1.86234
   A17        1.94952  -0.01842   0.00000  -0.10542  -0.10277   1.84674
   A18        1.92213   0.02130   0.00000   0.12216   0.11987   2.04200
   A19        1.87929   0.00088   0.00000   0.00426   0.00430   1.88359
   A20        1.87453   0.00165   0.00000   0.00290   0.00281   1.87734
   A21        2.07656  -0.00422   0.00000  -0.01411  -0.01413   2.06243
   A22        1.84022  -0.00056   0.00000   0.00069   0.00069   1.84091
   A23        1.87919   0.00240   0.00000   0.01177   0.01181   1.89100
   A24        1.90048   0.00018   0.00000  -0.00397  -0.00402   1.89646
   A25        1.91299   0.00042   0.00000   0.00141   0.00141   1.91440
   A26        1.95975   0.00072   0.00000   0.00230   0.00230   1.96205
   A27        1.95467   0.00017   0.00000   0.00168   0.00167   1.95634
   A28        1.88604  -0.00117   0.00000  -0.00674  -0.00674   1.87931
   A29        1.86612   0.00011   0.00000   0.00184   0.00183   1.86795
   A30        1.88062  -0.00034   0.00000  -0.00084  -0.00085   1.87978
   A31        1.89944  -0.00839   0.00000  -0.03734  -0.03562   1.86382
   A32        1.89378  -0.00764   0.00000  -0.00841  -0.01169   1.88209
   A33        1.97685   0.03423   0.00000   0.11367   0.11268   2.08953
   A34        1.86409   0.00261   0.00000  -0.01000  -0.01057   1.85351
   A35        1.93972  -0.01777   0.00000  -0.08017  -0.07846   1.86126
   A36        1.88604  -0.00448   0.00000   0.01753   0.01433   1.90038
   A37        1.90782  -0.00937   0.00000  -0.03184  -0.03152   1.87630
   A38        1.87304  -0.00748   0.00000  -0.01711  -0.01889   1.85415
   A39        1.98962   0.03675   0.00000   0.12387   0.12329   2.11292
   A40        1.87912   0.00094   0.00000  -0.02459  -0.02578   1.85334
   A41        1.94818  -0.01442   0.00000  -0.04879  -0.04854   1.89964
   A42        1.86082  -0.00779   0.00000  -0.00732  -0.00908   1.85174
   A43        2.06307  -0.00641   0.00000  -0.01838  -0.01838   2.04469
   A44        2.07737  -0.01297   0.00000  -0.03717  -0.03717   2.04020
   A45        2.02615   0.02045   0.00000   0.07406   0.07404   2.10019
   A46        2.22827  -0.02192   0.00000  -0.06987  -0.06989   2.15838
   A47        2.02875   0.00147   0.00000  -0.00414  -0.00415   2.02460
   A48        2.12021   0.00289   0.00000   0.01101   0.01101   2.13123
   A49        2.13821  -0.00187   0.00000  -0.00596  -0.00596   2.13224
   A50        2.02476  -0.00101   0.00000  -0.00505  -0.00505   2.01972
   A51        1.93083   0.00022   0.00000   0.00096   0.00096   1.93179
   A52        1.92932   0.00017   0.00000   0.00081   0.00081   1.93013
   A53        1.93206  -0.00091   0.00000  -0.00387  -0.00387   1.92819
   A54        1.86124  -0.00008   0.00000  -0.00007  -0.00007   1.86117
   A55        1.90580   0.00028   0.00000   0.00096   0.00096   1.90676
   A56        1.90299   0.00036   0.00000   0.00140   0.00140   1.90438
   A57        1.94028   0.00008   0.00000   0.00054   0.00054   1.94081
   A58        1.93751  -0.00176   0.00000  -0.00744  -0.00745   1.93006
   A59        1.93991  -0.00042   0.00000  -0.00174  -0.00174   1.93817
   A60        1.89252   0.00090   0.00000   0.00374   0.00373   1.89625
   A61        1.86500   0.00033   0.00000   0.00174   0.00174   1.86674
   A62        1.88599   0.00100   0.00000   0.00373   0.00372   1.88971
    D1       -3.02231   0.00017   0.00000   0.00135   0.00135  -3.02096
    D2       -1.03258  -0.00024   0.00000  -0.00148  -0.00148  -1.03405
    D3        1.10884  -0.00029   0.00000  -0.00101  -0.00100   1.10784
    D4       -0.95269   0.00039   0.00000   0.00320   0.00320  -0.94949
    D5        1.03705  -0.00002   0.00000   0.00038   0.00037   1.03742
    D6       -3.10472  -0.00007   0.00000   0.00084   0.00085  -3.10387
    D7        1.14651   0.00053   0.00000   0.00444   0.00444   1.15095
    D8        3.13625   0.00012   0.00000   0.00162   0.00161   3.13786
    D9       -1.00552   0.00007   0.00000   0.00208   0.00209  -1.00343
   D10       -2.88926   0.00243   0.00000   0.00775   0.00804  -2.88122
   D11        1.32608   0.00947   0.00000   0.07146   0.06986   1.39594
   D12       -0.79845  -0.01316   0.00000  -0.09317  -0.09184  -0.89029
   D13        1.22933   0.00270   0.00000   0.00906   0.00934   1.23867
   D14       -0.83851   0.00975   0.00000   0.07276   0.07115  -0.76736
   D15       -2.96304  -0.01289   0.00000  -0.09187  -0.09054  -3.05358
   D16       -0.74277   0.00285   0.00000   0.01034   0.01062  -0.73215
   D17       -2.81061   0.00989   0.00000   0.07405   0.07244  -2.73818
   D18        1.34804  -0.01275   0.00000  -0.09058  -0.08926   1.25878
   D19       -0.68152   0.00211   0.00000   0.00082   0.00158  -0.67995
   D20        1.29278   0.00268   0.00000   0.00504   0.00580   1.29858
   D21       -2.82352   0.00119   0.00000  -0.00849  -0.00773  -2.83125
   D22        1.41574  -0.00745   0.00000  -0.04532  -0.04749   1.36826
   D23       -2.89313  -0.00688   0.00000  -0.04110  -0.04327  -2.93640
   D24       -0.72625  -0.00837   0.00000  -0.05463  -0.05679  -0.78304
   D25       -2.73677   0.00326   0.00000   0.00699   0.00839  -2.72838
   D26       -0.76246   0.00383   0.00000   0.01120   0.01261  -0.74985
   D27        1.40442   0.00234   0.00000  -0.00232  -0.00091   1.40351
   D28        1.08338   0.00113   0.00000   0.02776   0.02781   1.11119
   D29        3.10560  -0.00443   0.00000  -0.00870  -0.00863   3.09697
   D30       -1.08342   0.00637   0.00000   0.07972   0.08082  -1.00260
   D31       -0.94312   0.00018   0.00000   0.06117   0.05983  -0.88328
   D32        1.07910  -0.00538   0.00000   0.02471   0.02340   1.10250
   D33       -3.10992   0.00542   0.00000   0.11313   0.11285  -2.99708
   D34       -3.09019   0.01314   0.00000   0.14418   0.14438  -2.94580
   D35       -1.06797   0.00759   0.00000   0.10772   0.10795  -0.96002
   D36        1.02619   0.01838   0.00000   0.19614   0.19740   1.22359
   D37       -2.67003   0.00231   0.00000   0.02879   0.03097  -2.63906
[...]
 0.00031568,0.00002519,0.00000464,0.00002312,-0.00001273,0.00002971,-0.
 00001420,0.00000604,0.00000327,0.00001792,-0.00001322,-0.00000449,-0.0
 0001429,-0.00001403,0.00001289,-0.00000838,0.00002212,0.00000716,-0.00
 000837,0.00000014,0.00000591,0.00000367,0.00003732,-0.00004781,-0.0000
 3923,0.00000865,0.00004707,0.00000706,0.00000883,-0.00002712,0.0000012
 0,-0.00043187,-0.00268588,-0.00099790,-0.00022528,0.00003371,-0.000056
 45,-0.00050939,0.00017380,-0.00051424,-0.00334874,0.00290448,-0.001298
 24,0.00003386,0.00014509,0.00007106,-0.00004233,-0.00003920,-0.0000202
 0,0.00000860,0.00001762,-0.00001994,0.00811043,0.02028915,-0.01389567,
 -0.00040672,-0.00106182,0.00047695,0.03032696,0.10172751,-0.09526276,-
 0.00589199,-0.02077912,0.01170715,-0.02961005,-0.11134444,0.10537957,0
 .00000598,0.00000152,-0.00003426,-0.00001508,-0.00002293,-0.00003413,0
 .00001373,-0.00000632,0.00001951,0.00001499,0.00005044,-0.00001232,-0.
 00005555,0.00003942,0.00001753,0.00002871,-0.00000581,-0.00001329,0.00
 001964,-0.00000432,0.00000102,0.00001522,-0.00006498,0.00000696,0.0000
 1651,0.00001580,-0.00000068,-0.00000211,0.00000293,-0.00001273,-0.0000
 0094,-0.00000551,-0.00000079,-0.00000293,-0.00002061,0.00001467,-0.000
 00017,0.00000354,-0.00000733,0.00000901,0.00001368,0.00000127,0.000000
 90,-0.00000418,0.00000273,-0.00010148,-0.00003672,0.00002068,0.0000311
 9,0.00000757,0.00000547,0.00003523,-0.00002139,-0.00001441,0.00062009,
 -0.00009721,-0.00045719,0.00040285,-0.00009251,0.00026521,-0.00005953,
 0.00001803,-0.00008947,0.00275144,-0.00109071,0.00201185,0.00009204,0.
 00000735,0.00003412,-0.00000554,0.00003444,-0.00001357,0.00000912,-0.0
 0001237,0.00001477,-0.02348704,0.00194967,0.01086619,-0.00195904,0.001
 30775,-0.00348955,-0.27442262,0.02086993,0.10012194,0.00323285,0.00026
 549,-0.00117363,-0.00493656,0.00042836,0.00175328,0.29772996,0.0000098
 2,0.00005144,0.00004019,-0.00000026,-0.00000103,0.00001230,-0.00000432
 ,-0.00000473,-0.00001757,-0.00001364,-0.00003586,0.00002456,0.00001372
 ,-0.00002744,-0.00001537,-0.00000451,-0.00000189,0.00000800,-0.0000182
 9,0.00000242,-0.00001243,0.00006430,0.00003055,0.00000190,-0.00000854,
 -0.00002397,0.00000953,0.00000475,-0.00000322,0.00000956,-0.00000531,-
 0.00000028,-0.00000458,-0.00000157,0.00000751,-0.00000519,-0.00000222,
 -0.00000103,0.00000108,-0.00000314,-0.00000440,0.00000092,0.00000232,-
 0.00000128,-0.00000232,0.00009873,0.00004204,0.00001800,-0.00003139,0.
 00000769,-0.00002079,-0.00002026,0.00000363,0.00000232,-0.00011311,-0.
 00019591,0.00008389,-0.00014900,0.00001420,-0.00000243,-0.00006662,0.0
 0000609,0.00001372,-0.00068691,-0.00046045,-0.00071413,-0.00010580,-0.
 00001200,-0.00006181,0.00000660,-0.00005263,0.00002107,-0.00002207,0.0
 0002787,-0.00002221,0.00778523,-0.00154840,-0.00414790,0.00113587,0.00
 168186,0.00147770,0.02009737,-0.05236708,-0.00898183,0.02208495,-0.001
 22386,-0.00803558,-0.02648050,0.00462172,0.01070176,-0.02354920,0.0494
 9761,0.00001093,0.00002362,-0.00001028,-0.00000021,-0.00002205,-0.0000
 5023,-0.00000713,-0.00001749,0.00002218,0.00000556,0.00002639,-0.00000
 787,-0.00001936,0.00003368,-0.00001443,0.00001619,-0.00001315,0.000003
 51,0.00000861,-0.00000271,0.00000501,0.00009506,0.00003336,0.00000075,
 -0.00000744,-0.00003322,0.00000707,0.00001242,-0.00001051,0.00000842,-
 0.00000410,-0.00000104,-0.00000500,0.00000905,-0.00000376,0.00000962,0
 .00000402,-0.00000259,0.00000015,-0.00000435,-0.00000153,0.00000375,0.
 00000095,-0.00000313,-0.00000154,-0.00001139,0.00002250,0.00002788,-0.
 00000082,-0.00000489,-0.00000418,0.00000065,-0.00000675,-0.00000874,-0
 .00037628,0.00002018,-0.00039022,0.00045636,-0.00001499,-0.00023675,0.
 00004819,0.00000283,-0.00000729,0.00087373,-0.00074964,0.00217006,-0.0
 0000236,-0.00002701,-0.00002280,0.00002804,0.00002725,0.00000730,-0.00
 000876,-0.00000044,-0.00000077,-0.02449329,0.00203642,0.01181579,-0.00
 272746,0.00141063,-0.00304789,0.10451475,-0.00983662,-0.09605107,0.020
 13057,0.00017313,-0.00834634,0.01126233,-0.00265532,-0.00585483,-0.109
 80782,0.00961494,0.09997289,-0.00011607,0.00003434,-0.00014134,0.00001
 186,0.00002684,0.00005883,0.00002830,0.00002452,0.00003041,0.00004126,
 -0.00003859,0.00013853,-0.00013647,0.00004251,0.00015045,-0.00001534,-
 0.00001590,-0.00005307,0.00002579,-0.00002845,-0.00003001,-0.00160537,
 0.00016656,-0.00006792,0.00007136,-0.00049903,-0.00018798,0.00000459,0
 .00002011,0.00000050,-0.00018101,-0.00001543,-0.00012961,0.00005708,-0
 .00003038,-0.00002864,-0.00002732,0.00001763,0.00001061,-0.00000676,-0
 .00000718,0.00000717,0.00002092,0.00002690,0.00001553,0.00675538,-0.00
 188038,-0.00618817,-0.00028208,0.00002788,-0.00010237,0.00083531,0.000
 16586,0.00067801,0.00002324,0.00003693,-0.00016733,-0.00001745,-0.0000
 1041,0.00002113,-0.00001364,-0.00008153,0.00001150,-0.00005300,-0.0000
 4984,0.00002044,-0.02387502,-0.01894663,-0.00319596,-0.19465258,-0.009
 35967,-0.06036142,-0.00725941,-0.00391550,-0.00586198,0.00007561,0.000
 02685,-0.00006991,-0.00000683,0.00001311,0.00000001,-0.00001275,-0.000
 01182,0.00003935,0.00001648,0.00001340,-0.00004559,-0.00001092,-0.0000
 2746,0.00000078,-0.00001429,0.00002635,0.00000138,0.50746752,0.0000389
 7,0.00004646,-0.00016609,-0.00002493,-0.00003863,-0.00001305,0.0000522
 3,-0.00004977,-0.00002927,-0.00012282,0.00024478,0.00011516,-0.0000575
 0,-0.00019425,0.00024155,0.00002177,0.00002362,-0.00001436,0.00004405,
 -0.00003119,-0.00010975,-0.00016753,0.00081001,-0.00010745,0.00006147,
 -0.00032139,-0.00000050,-0.00000207,0.00002086,-0.00003598,-0.00012527
 ,-0.00002057,-0.00013129,-0.00003693,0.00007132,-0.00008668,-0.0000521
 4,-0.00003540,-0.00003967,0.00001555,0.00001412,0.00001623,0.00004377,
 -0.00009060,-0.00000606,-0.00155161,-0.00003362,0.00613293,-0.00093317
 ,0.00054633,-0.00077656,-0.00210736,-0.00025571,-0.00080543,0.00002647
 ,0.00024326,-0.00004315,0.00003546,-0.00000459,0.00000601,0.00002752,-
 0.00005736,-0.00000785,-0.00000570,-0.00015664,0.00016823,-0.03752897,
 -0.01264357,-0.01772772,-0.00642352,-0.08761905,0.00077428,0.02072907,
 0.00613369,0.01124063,-0.00010699,0.00003592,-0.00020781,0.00003560,0.
 00002061,0.00002478,-0.00001820,0.00000982,0.00003426,-0.00001882,-0.0
 0000290,0.00005567,0.00004429,0.00000423,0.00002109,0.00003039,-0.0000
 5291,-0.00002715,-0.01443506,0.58720283,0.00009049,0.00010500,-0.00001
 220,0.00000406,-0.00000362,0.00000256,-0.00002453,-0.00006147,-0.00010
 254,-0.00007971,0.00009555,0.00023556,0.00018854,-0.00015555,-0.000153
 78,-0.00005881,-0.00000375,-0.00000483,-0.00004368,0.00001712,0.000005
 49,0.00249265,-0.00061966,0.00037812,-0.00010324,0.00080488,0.00035436
 ,-0.00001270,-0.00002001,0.00000720,0.00025676,-0.00000754,0.00018584,
 -0.00009319,0.00007189,0.00002670,0.00001514,-0.00003535,-0.00003755,0
 .00001635,0.00000926,-0.00000672,0.00000770,-0.00007736,-0.00004231,-0
 .00570155,0.00649375,0.01335696,0.00046263,-0.00048235,0.00038128,-0.0
 0235285,-0.00090435,-0.00109697,0.00002929,-0.00007956,0.00019250,0.00
 000414,0.00002865,-0.00002777,0.00001353,0.00006304,-0.00002421,-0.000
 05121,-0.00004695,-0.00005555,0.00343995,-0.00686966,-0.00072024,-0.06
 141315,-0.00100950,-0.10868543,-0.01485943,-0.00210418,-0.00096140,-0.
 00001741,-0.00000562,-0.00000934,-0.00001702,0.00001938,0.00000889,0.0
 0003926,-0.00004176,-0.00003072,0.00000546,-0.00000244,-0.00000272,-0.
 00002095,0.00000015,0.00000779,-0.00002139,0.00003523,0.00000313,-0.01
 025752,-0.02684830,0.54104603,-0.00002274,-0.00002806,-0.00003561,0.00
 001049,-0.00000682,-0.00000302,0.00000452,-0.00000139,0.00002022,0.000
 03126,-0.00002301,-0.00007443,-0.00000454,0.00004056,-0.00001044,-0.00
 000365,-0.00001626,0.00002409,0.00001048,-0.00001330,0.00000009,0.0000
 5350,-0.00003818,0.00006869,0.00000431,0.00000804,0.00000223,0.0000040
 4,-0.00000265,0.00001191,0.00000051,-0.00000254,0.00000250,0.00000067,
 0.00001157,0.00000711,0.00000039,-0.00000103,0.00000060,-0.00000442,-0
 .00000504,0.00000195,-0.00000113,-0.00000179,-0.00000503,-0.00030409,-
 0.00043199,0.00017588,0.00037057,-0.00029394,0.00029663,-0.00006075,-0
 .00001911,-0.00002626,-0.00003962,-0.00002062,-0.00008458,0.00001439,-
 0.00000582,0.00000475,0.00000902,-0.00001769,0.00001811,0.00002209,0.0
 0001184,0.00002977,0.00320336,0.00113226,0.00177061,-0.01078792,0.0285
 1203,-0.01595567,-0.00437763,-0.00197725,-0.00280496,-0.00006191,-0.00
 000037,-0.00000222,0.00000839,-0.00001452,-0.00000075,0.00000861,0.000
 02141,-0.00002795,-0.00001205,-0.00000665,0.00005509,0.00002076,0.0000
 2409,0.00000439,0.00002079,-0.00003046,-0.00000354,-0.07839984,0.07007
 838,-0.04120559,0.08295305,-0.00000798,-0.00000722,-0.00000324,-0.0000
 0372,0.00000367,-0.00000474,-0.00000491,0.00000201,0.00001051,0.000016
 20,-0.00004941,-0.00008163,0.00001053,-0.00001624,-0.00001119,-0.00000
 212,0.00000747,-0.00001340,-0.00000106,0.00001131,0.00001050,0.0000343
 2,-0.00006459,-0.00001673,-0.00001145,0.00002211,0.00001021,0.00000188
 ,0.00000070,-0.00000345,0.00001368,0.00000448,0.00001235,0.00000108,-0
 .00000761,0.00000372,0.00000543,0.00000082,0.00000278,0.00000056,0.000
 00263,-0.00000347,-0.00000493,0.00000454,0.00000316,-0.00043045,0.0002
 8946,-0.00040117,-0.00013077,-0.00034104,0.00007745,0.00008714,-0.0000
 1315,0.00004067,-0.00001042,-0.00002742,0.00000481,0.00000308,0.000002
 49,-0.00000446,-0.00000181,0.00001016,-0.00000014,0.00001995,0.0000394
 9,-0.00003074,0.00003580,0.00100046,-0.00061685,-0.00181182,0.00592981
 ,-0.00357812,-0.00130259,0.00040296,-0.00008681,-0.00000337,-0.0000092
 9,0.00006084,0.00000517,-0.00000681,-0.00000546,-0.00000906,0.00002613
 ,-0.00000097,-0.00000103,0.00000015,-0.00000913,0.00000297,0.00000203,
 -0.00000892,0.00000332,-0.00000874,0.00000260,0.07393702,-0.23088629,0
 .10751990,-0.07915698,0.24606851,-0.00001914,-0.00010558,-0.00017600,0
 .00001890,0.00001404,0.00002859,0.00000747,-0.00000094,0.00000795,-0.0
 0006239,-0.00007622,-0.00010175,-0.00004456,0.00009324,0.00003123,0.00
 000804,-0.00002339,0.00001658,0.00004656,-0.00002433,0.00000603,-0.000
 05988,0.00004770,0.00003753,0.00002018,-0.00002272,-0.00002897,0.00000
 033,0.00000097,0.00000609,-0.00001250,-0.00000771,-0.00001026,0.000006
 71,0.00000690,0.00000841,0.00000132,-0.00000060,-0.00000215,-0.0000009
 8,-0.00000110,0.00000150,0.00000306,-0.00000446,-0.00000308,0.00012433
 ,-0.00040991,0.00001810,0.00023302,-0.00005096,0.00012575,0.00000373,-
 0.00004651,0.00002237,-0.00002211,0.00000536,-0.00003886,0.00001701,-0
 .00000035,-0.00000465,-0.00000317,-0.00001744,0.00000142,0.00004687,0.
 00000231,-0.00001551,0.00210604,-0.00003888,0.00045384,-0.00461907,0.0
 1278150,-0.00815878,-0.00301641,-0.00041740,0.00066526,-0.00002012,-0.
 00001358,0.00004471,0.00002172,-0.00000301,-0.00000715,-0.00003260,0.0
 0002453,0.00001949,0.00000831,-0.00000297,-0.00001192,0.00000743,-0.00
 000322,-0.00000908,0.00001537,-0.00001513,0.00000922,-0.04264980,0.105
 44140,-0.11301805,0.04885631,-0.11714527,0.11750374,0.00002776,0.00001
 136,-0.00004353,0.00001998,0.00001426,0.00000428,0.00004487,-0.0000451
 4,-0.00005512,-0.00007174,-0.00004688,0.00003048,-0.00011451,-0.000059
 84,0.00014730,-0.00000859,0.00004628,-0.00000789,0.00004579,-0.0000107
 0,-0.00006204,-0.00073911,0.00056581,0.00006752,0.00010089,-0.00036880
 ,-0.00010019,-0.00000215,0.00002388,-0.00000842,-0.00013135,-0.0000137
 7,-0.00010742,0.00001045,0.00002133,-0.00003008,-0.00003062,-0.0000034
 2,-0.00000656,0.00000249,0.00000022,0.00000719,0.00002051,-0.00001456,
 0.00000552,0.00125635,-0.00186695,-0.00227628,-0.00020584,0.00018031,-
 0.00018298,0.00017330,0.00016803,0.00011170,0.00003036,0.00006792,-0.0
 0012178,0.00000377,-0.00000382,0.00000808,-0.00000528,-0.00007751,0.00
 000923,-0.00002256,-0.00006154,0.00005119,-0.00398524,0.00140393,-0.00
 052847,-0.01858000,-0.01052248,0.02232897,0.00097018,0.00050588,-0.001
 37818,0.00000083,0.00001475,-0.00008250,0.00000939,0.00001289,0.000005
 41,-0.00001192,0.00000050,0.00001780,0.00000339,0.00000567,0.00000024,
 0.00000952,-0.00000900,0.00000807,0.00000595,-0.00000411,-0.00000375,-
 0.16203917,-0.04240060,0.12174474,0.00887187,0.00176989,-0.00879771,0.
 17556545,-0.00002887,-0.00000821,-0.00012083,0.00003539,0.00004481,0.0
 0004643,0.00000951,-0.00001855,-0.00003122,-0.00001964,-0.00005051,0.0
 0010279,-0.00006376,0.00001807,0.00001312,-0.00001444,0.00001233,-0.00
 001836,0.00003877,-0.00000015,0.00000564,-0.00021675,0.00008562,0.0000
 3779,0.00001839,-0.00006996,-0.00005436,-0.00000231,0.00000406,0.00000
 382,-0.00002599,-0.00000869,-0.00001922,0.00001732,-0.00000316,0.00000
 557,0.00000290,0.00000049,-0.00000084,0.00000011,-0.00000235,-0.000001
 30,0.00000886,0.00000125,-0.00000214,0.00012399,-0.00025832,-0.0013040
 8,-0.00009998,-0.00000599,-0.00006719,0.00023496,-0.00000352,0.0001075
 8,0.00000329,-0.00000979,-0.00000614,0.00000462,0.00000750,-0.00001171
 ,-0.00000847,-0.00001601,-0.00000435,0.00001171,0.00000315,-0.00003621
 ,-0.00206992,0.00074867,0.00011341,-0.00564741,-0.00428296,0.00352974,
 -0.00005156,0.00001034,-0.00024211,0.00002313,-0.00000813,0.00002550,0
 .00000551,0.00000339,-0.00000740,-0.00001141,0.00000019,0.00000592,0.0
 0000896,0.00000307,-0.00002554,-0.00000823,-0.00000894,-0.00000356,-0.
 00000352,0.00001252,0.00000746,-0.04191435,-0.06336569,0.05112393,-0.0
 1879756,-0.00498975,0.01751127,0.05056236,0.06513468,-0.00002844,0.000
 02516,-0.00005630,0.00000958,0.00000652,0.00000962,0.00000995,-0.00001
 259,0.00000642,0.00001913,0.00002411,0.00005310,-0.00004088,-0.0000171
 9,0.00005770,-0.00001114,0.00000931,-0.00001549,0.00001342,-0.00000342
 ,-0.00001153,-0.00038363,0.00015683,-0.00005881,0.00002337,-0.00014817
 ,-0.00005306,0.00000006,0.00000574,-0.00000291,-0.00005337,0.00000051,
 -0.00004166,0.00000667,0.00000049,-0.00001032,-0.00000685,0.00000140,0
 .00000357,-0.00000230,-0.00000266,0.00000291,0.00000088,0.00000286,0.0
 0000275,0.00066445,-0.00102316,-0.00126585,-0.00004582,0.00006074,-0.0
 0002780,0.00013220,0.00008574,0.00006952,-0.00000003,0.00003289,-0.000
 05953,0.00000243,-0.00000605,0.00000584,0.00000331,-0.00002265,0.00000
 965,-0.00000291,-0.00001634,0.00003767,-0.00150927,-0.00042314,-0.0003
 2439,-0.01076358,-0.00465159,0.01385274,0.00118523,0.00025152,-0.00004
 938,-0.00001418,0.00000973,-0.00003817,0.00000024,-0.00000208,0.000003
 11,0.00000228,-0.00000268,-0.00000377,-0.00000528,-0.00000334,0.000024
 96,0.00001161,0.00000848,0.00000456,0.00000601,-0.00001234,-0.00000362
 ,0.11968342,0.05033012,-0.17617322,0.00920802,0.00185960,-0.01010089,-
 0.13241287,-0.05245119,0.18987212,0.00006278,-0.00001168,-0.00007073,0
 .00001033,-0.00001240,-0.00000660,0.00001841,-0.00004450,-0.00005543,-
 0.00013279,0.00002001,0.00001853,-0.00001753,-0.00003337,0.00005690,-0
 .00000090,0.00000096,0.00002586,0.00002730,-0.00002455,-0.00004150,0.0
 0030467,0.00028106,0.00012916,0.00003267,-0.00001590,0.00003343,-0.000
 00207,0.00000387,-0.00000161,-0.00002182,-0.00001583,-0.00002490,-0.00
 002490,0.00003483,-0.00002600,-0.00001823,-0.00001606,-0.00001842,0.00
 000595,0.00000285,0.00000598,0.00001983,-0.00003799,-0.00001092,-0.001
 72904,0.00038430,0.00310503,-0.00008745,0.00006051,-0.00014080,-0.0009
 0725,-0.00017246,-0.00042098,0.00001201,0.00005553,-0.00003503,0.00001
 309,0.00000010,0.00000060,0.00000643,-0.00003253,0.00000151,-0.0000165
 0,-0.00005653,0.00004905,-0.00266379,-0.00020695,-0.00347747,0.0032840
 8,-0.02757386,-0.01965359,0.00034414,0.00126661,0.00123511,-0.00002436
 ,0.00000481,-0.00007695,0.00000595,0.00000904,0.00000708,-0.00000985,-
 0.00000260,0.00000661,0.00000598,-0.00000088,0.00001574,0.00001278,-0.
 00000004,0.00000726,0.00000668,-0.00000879,-0.00000072,-0.04670935,0.0
 1483418,0.00752325,-0.00154280,0.00694644,0.00780773,-0.00122504,0.017
 87440,0.01429831,0.05096058,0.00000457,0.00004108,0.00003669,-0.000004
 70,-0.00001614,-0.00001068,0.00000132,-0.00000600,-0.00001478,-0.00000
 180,0.00001954,0.00004350,0.00001461,-0.00003984,-0.00000846,-0.000000
 79,0.00000344,0.00001254,-0.00001749,-0.00000461,-0.00001862,0.0001166
 8,0.00004484,0.00007016,0.00001093,0.00000524,0.00001724,-0.00000087,0
 .00000002,0.00000475,-0.00000622,-0.00000542,-0.00000688,-0.00000864,0
 .00000732,-0.00001264,-0.00000901,-0.00000397,-0.00000295,-0.00000112,
 -0.00000446,0.00000350,0.00000612,-0.00000779,-0.00000584,-0.00064323,
 0.00038620,0.00058980,-0.00010618,0.00003355,-0.00002819,-0.00014385,-
 0.00002586,-0.00008130,0.00002549,0.00001007,-0.00002064,-0.00001218,-
 0.00000317,0.00000893,0.00000352,-0.00001262,0.00000446,-0.00005504,-0
 .00003245,0.00004180,-0.00086520,0.00039136,-0.00221404,-0.00203359,-0
 .00537740,-0.00176566,-0.00063891,0.00020968,-0.00006249,0.00002443,0.
 00000898,-0.00007156,-0.00002168,0.00000775,0.00000801,0.00001730,-0.0
 0002983,-0.00000792,0.00000711,0.00000119,0.00000977,-0.00000515,-0.00
 000329,0.00000982,-0.00001137,0.00001996,-0.00000098,0.01666080,-0.199
 56771,-0.12700877,0.00107285,-0.01740385,-0.01749755,0.00013387,0.0070
 2055,0.00592685,-0.01351258,0.21433364,0.00004030,-0.00000407,-0.00001
 437,-0.00001038,-0.00002837,-0.00001627,0.00001105,-0.00001248,-0.0000
 1272,-0.00006707,0.00004463,-0.00003156,-0.00001236,-0.00001938,0.0000
 4375,0.00001097,-0.00000584,0.00002755,0.00000417,-0.00002587,-0.00003
 825,0.00004491,0.00024531,0.00002025,0.00003322,-0.00006958,0.00001275
 ,0.00000151,0.00000507,-0.00000274,-0.00003476,-0.00001139,-0.00003007
 ,-0.00001314,0.00001966,-0.00002122,-0.00001965,-0.00000689,-0.0000108
 8,0.00000397,0.00000367,0.00000563,0.00001210,-0.00002037,-0.00000097,
 -0.00030486,-0.00014173,0.00123538,-0.00005405,0.00007078,-0.00011402,
 -0.00039640,-0.00008196,-0.00021682,0.00001602,0.00005141,-0.00003121,
 0.00000266,-0.00000417,0.00000887,0.00000395,-0.00002715,-0.00000156,-
 0.00002245,-0.00004579,0.00004311,-0.00075633,0.00047369,-0.00142678,0
 .00216672,-0.00999615,-0.00688210,-0.00040629,0.00076658,0.00045588,-0
 .00000898,0.00000716,-0.00006133,0.00000403,0.00000963,0.00000711,-0.0
 0000825,0.00000301,0.00001313,0.00000410,0.00000434,0.00000105,0.00000
 707,-0.00000716,0.00000479,0.00000396,-0.00000507,-0.00000288,0.008670
 54,-0.12741824,-0.15502688,-0.00031889,0.01240681,0.01267926,0.0016580
 6,-0.01823224,-0.01571951,-0.01026548,0.14205214,0.16510360\\0.0000028
 2,-0.00000358,-0.00000414,-0.00000045,0.00000673,-0.00000250,0.0000000
 5,0.00000853,0.00000015,0.00000115,0.00000805,0.00000080,-0.00001224,0
 .00000743,-0.00000688,-0.00000576,-0.00000088,0.00000224,-0.00000530,0
 .00000068,-0.00000154,0.00001594,0.00000334,0.00000398,-0.00000302,0.0
 0000510,0.00000670,-0.00000937,-0.00000338,-0.00000214,-0.00000030,-0.
 00000476,0.00000109,-0.00000038,-0.00000676,0.00000324,-0.00000210,-0.
 00000772,0.00000413,-0.00000191,-0.00001060,0.00000335,-0.00000527,-0.
 00000660,0.00000415,-0.00002435,0.00000385,0.00000546,0.00000157,-0.00
 000778,-0.00000054,-0.00000084,-0.00000625,-0.00000270,0.00000288,-0.0
 0001704,0.00000504,0.00000580,-0.00000372,0.00000231,0.00000545,0.0000
 0340,-0.00000158,-0.00000234,0.00000102,-0.00000112,0.00001433,-0.0000
 0326,0.00000539,-0.00001562,0.00002022,-0.00001855,-0.00000322,-0.0000
 0347,-0.00000191,0.00000875,-0.00000154,-0.00000552,0.00000715,-0.0000
 0734,-0.00000144,0.00001206,-0.00000102,-0.00000011,0.00001016,0.00000
 217,-0.00000528,0.00000897,0.00000059,0.00000069,0.00000650,0.00000268
 ,-0.00000267,-0.00001483,0.00003254,0.00002524,0.00001326,0.00000426,-
 0.00000753,-0.00000514,-0.00000458,-0.00000583,-0.00000442,-0.00001031
 ,-0.00000197\\\@
 The archive entry for this job was punched.


 SUCCESS-- IF YOU HAVE TRIED TO DO SOMETHING AND FAILED
           YOU ARE BETTER OFF THAN IF YOU HAD TRIED TO DO
           NOTHING AND SUCCEEDED.

                   -- FROM THE BACK OF A SUGAR PACKET
 Job cpu time:       0 days  1 hours 21 minutes  9.7 seconds.
 Elapsed time:       0 days  0 hours  5 minutes  5.3 seconds.
 File lengths (MBytes):  RWF=    342 Int=      0 D2E=      0 Chk=     15 Scr=      1
 Normal termination of Gaussian 16 at Thu Sep 30 18:20:50 2021.
