 Entering Gaussian System, Link 0=/home/rong/g16/g16
 Input=/home/rong/g16/102121/CH3CH2CCH2NMeCH2CH3.gjf
 Output=/home/rong/g16/102121/CH3CH2CCH2NMeCH2CH3.log
 Initial command:
 /home/rong/g16/l1.exe "/tmp/Gau-117893.inp" -scrdir="/tmp/"
 Default is to use a total of   8 processors:
                                8 via shared-memory
                                1 via Linda
 Entering Link 1 = /home/rong/g16/l1.exe PID=    117895.
  
 Copyright (c) 1988-2019, Gaussian, Inc.  All Rights Reserved.
  
 This is part of the Gaussian(R) 16 program.  It is based on
 the Gaussian(R) 09 system (copyright 2009, Gaussian, Inc.),
 the Gaussian(R) 03 system (copyright 2003, Gaussian, Inc.),
 the Gaussian(R) 98 system (copyright 1998, Gaussian, Inc.),
 the Gaussian(R) 94 system (copyright 1995, Gaussian, Inc.),
 the Gaussian 92(TM) system (copyright 1992, Gaussian, Inc.),
 the Gaussian 90(TM) system (copyright 1990, Gaussian, Inc.),
 the Gaussian 88(TM) system (copyright 1988, Gaussian, Inc.),
 the Gaussian 86(TM) system (copyright 1986, Carnegie Mellon
 University), and the Gaussian 82(TM) system (copyright 1983,
 Carnegie Mellon University). Gaussian is a federally registered
 trademark of Gaussian, Inc.
  
 This software contains proprietary and confidential information,
 including trade secrets, belonging to Gaussian, Inc.
  
 This software is provided under written license and may be
 used, copied, transmitted, or stored only in accord with that
 written license.
  
 The following legend is applicable only to US Government
 contracts under FAR:
  
                    RESTRICTED RIGHTS LEGEND
  
 Use, reproduction and disclosure by the US Government is
 subject to restrictions as set forth in subparagraphs (a)
 and (c) of the Commercial Computer Software - Restricted
 Rights clause in FAR 52.227-19.
  
 Gaussian, Inc.
 340 Quinnipiac St., Bldg. 40, Wallingford CT 06492
  
  
 ---------------------------------------------------------------
 Warning -- This program may not be used in any manner that
 competes with the business of Gaussian, Inc. or will provide
 assistance to any competitor of Gaussian, Inc.  The licensee
 of this program is prohibited from giving any competitor of
 Gaussian, Inc. access to this program.  By using this program,
 the user acknowledges that Gaussian, Inc. is engaged in the
 business of creating and licensing software in the field of
 computational chemistry and represents and warrants to the
 licensee that it is not a competitor of Gaussian, Inc. and that
 it will not use this program in any manner prohibited above.
 ---------------------------------------------------------------
  

 Cite this work as:
 Gaussian 16, Revision C.01,
 M. J. Frisch, G. W. Trucks, H. B. Schlegel, G. E. Scuseria, 
 M. A. Robb, J. R. Cheeseman, G. Scalmani, V. Barone, 
 G. A. Petersson, H. Nakatsuji, X. Li, M. Caricato, A. V. Marenich, 
 J. Bloino, B. G. Janesko, R. Gomperts, B. Mennucci, H. P. Hratchian, 
 J. V. Ortiz, A. F. Izmaylov, J. L. Sonnenberg, D. Williams-Young, 
 F. Ding, F. Lipparini, F. Egidi, J. Goings, B. Peng, A. Petrone, 
 T. Henderson, D. Ranasinghe, V. G. Zakrzewski, J. Gao, N. Rega, 
 G. Zheng, W. Liang, M. Hada, M. Ehara, K. Toyota, R. Fukuda, 
 J. Hasegawa, M. Ishida, T. Nakajima, Y. Honda, O. Kitao, H. Nakai, 
 T. Vreven, K. Throssell, J. A. Montgomery, Jr., J. E. Peralta, 
 F. Ogliaro, M. J. Bearpark, J. J. Heyd, E. N. Brothers, K. N. Kudin, 
 V. N. Staroverov, T. A. Keith, R. Kobayashi, J. Normand, 
 K. Raghavachari, A. P. Rendell, J. C. Burant, S. S. Iyengar, 
 J. Tomasi, M. Cossi, J. M. Millam, M. Klene, C. Adamo, R. Cammi, 
 J. W. Ochterski, R. L. Martin, K. Morokuma, O. Farkas, 
 J. B. Foresman, and D. J. Fox, Gaussian, Inc., Wallingford CT, 2019.
 
 ******************************************
 Gaussian 16:  ES64L-G16RevC.01  3-Jul-2019
                24-Oct-2021 
 ******************************************
 %mem=15GB
 %chk=CH3CH2CCH2NMeCH2CH3.chk
 %nprocshared=8
 Will use up to    8 processors via shared memory.
 ----------------------------------------------------
 # opt freq b3lyp/6-31g(d) scrf=(smd,solvent=toluene)
 ----------------------------------------------------
 1/18=20,19=15,26=3,38=1/1,3;
 2/9=110,12=2,17=6,18=5,40=1/2;
 3/5=1,6=6,7=1,11=2,25=1,30=1,70=32201,71=1,72=13,74=-5/1,2,3;
 4//1;
 5/5=2,38=5,53=13/2;
 6/7=2,8=2,9=2,10=2,28=1/1;
 7//1,2,3,16;
 1/18=20,19=15,26=3/3(2);
 2/9=110/2;
 99//99;
 2/9=110/2;
 3/5=1,6=6,7=1,11=2,25=1,30=1,70=32205,71=1,72=13,74=-5/1,2,3;
 4/5=5,16=3,69=1/1;
 5/5=2,38=5,53=13/2;
 7//1,2,3,16;
 1/18=20,19=15,26=3/3(-5);
 2/9=110/2;
 6/7=2,8=2,9=2,10=2,19=2,28=1/1;
 99/9=1/99;
 -------------------
 CH3CH2CCH2NMeCH2CH3
 -------------------
 Symbolic Z-matrix:
 Charge =  0 Multiplicity = 1
 C                    -4.95588   1.76471   0. 
 H                    -4.59921   2.2691    0.87365 
 H                    -4.59921   2.2691   -0.87365 
 H                    -6.02588   1.76472   0. 
 C                    -4.44257   0.31277   0. 
 H                    -4.79924  -0.19162  -0.87365 
 H                    -3.37257   0.31276  0. 
 C                    -4.95591  -0.41318   1.25741 
 C                    -4.44262  -1.86512   1.25739 
 H                    -4.79941  -2.36953   0.3838 
 H                    -3.37262  -1.86518   1.25727 
 C                    -4.95584  -2.59102   2.51488 
 H                    -4.60088  -3.60042   2.51386 
 H                    -4.5974   -2.08777   3.38847 
 H                    -6.02584  -2.58921   2.51601 
 C                    -6.49591  -0.41314   1.25742 
 H                    -6.8526   -0.91774   0.38389 
 H                    -6.85258  -0.91733   2.1312 
 C                    -4.44254   0.31276   2.51481 
 H                    -3.37254   0.31103   2.51578 
 H                    -4.79758   1.32214   2.51384 
 N                    -6.98587   0.97281   1.2571 
 N                    -4.93474  -0.37865   3.71506 
 C                    -3.79624  -0.75401   4.56583 
 H                    -3.47513   0.09778   5.12819 
 H                    -4.09374  -1.53276   5.23662 
 H                    -2.99116  -1.10027   3.95196 
 C                    -5.83122   0.51508   4.46238 
 H                    -5.59134   1.53269   4.23474 
 H                    -6.84531   0.31692   4.18445 
 C                    -5.65609   0.27195   5.97295 
 H                    -4.71282   0.66482   6.29044 
 H                    -6.44402   0.76107   6.50664 
 H                    -5.68974  -0.77896   6.17133 
 C                    -8.29132   1.03178   1.93032 
 H                    -8.27534   1.80226   2.67261 
 H                    -8.49462   0.09078   2.39731 
 C                    -9.38932   1.33898   0.89513 
 H                    -10.33489   1.41521   1.3901 
 H                    -9.1681    2.26366   0.40429 
 H                    -9.42788   0.5515    0.17174 
 C                    -7.12766   1.44172  -0.12887 
 H                    -6.94695   2.49558  -0.1691 
 H                    -6.42024   0.93453  -0.75113 
 H                    -8.11901   1.23636  -0.47522 
 

 GradGradGradGradGradGradGradGradGradGradGradGradGradGradGradGradGradGrad
 Berny optimization.
 Initialization pass.
                           ----------------------------
                           !    Initial Parameters    !
                           ! (Angstroms and Degrees)  !
 --------------------------                            --------------------------
 ! Name  Definition              Value          Derivative Info.                !
 --------------------------------------------------------------------------------
 ! R1    R(1,2)                  1.07           estimate D2E/DX2                !
 ! R2    R(1,3)                  1.07           estimate D2E/DX2                !
 ! R3    R(1,4)                  1.07           estimate D2E/DX2                !
 ! R4    R(1,5)                  1.54           estimate D2E/DX2                !
 ! R5    R(4,42)                 1.1554         estimate D2E/DX2                !
 ! R6    R(5,6)                  1.07           estimate D2E/DX2                !
 ! R7    R(5,7)                  1.07           estimate D2E/DX2                !
 ! R8    R(5,8)                  1.54           estimate D2E/DX2                !
 ! R9    R(8,9)                  1.54           estimate D2E/DX2                !
 ! R10   R(8,16)                 1.54           estimate D2E/DX2                !
 ! R11   R(8,19)                 1.54           estimate D2E/DX2                !
 ! R12   R(9,10)                 1.07           estimate D2E/DX2                !
 ! R13   R(9,11)                 1.07           estimate D2E/DX2                !
 ! R14   R(9,12)                 1.54           estimate D2E/DX2                !
 ! R15   R(12,13)                1.07           estimate D2E/DX2                !
 ! R16   R(12,14)                1.07           estimate D2E/DX2                !
 ! R17   R(12,15)                1.07           estimate D2E/DX2                !
 ! R18   R(16,17)                1.07           estimate D2E/DX2                !
 ! R19   R(16,18)                1.07           estimate D2E/DX2                !
 ! R20   R(16,22)                1.47           estimate D2E/DX2                !
 ! R21   R(19,20)                1.07           estimate D2E/DX2                !
 ! R22   R(19,21)                1.07           estimate D2E/DX2                !
 ! R23   R(19,23)                1.47           estimate D2E/DX2                !
 ! R24   R(22,35)                1.47           estimate D2E/DX2                !
 ! R25   R(22,42)                1.47           estimate D2E/DX2                !
 ! R26   R(23,24)                1.47           estimate D2E/DX2                !
 ! R27   R(23,28)                1.47           estimate D2E/DX2                !
 ! R28   R(24,25)                1.07           estimate D2E/DX2                !
 ! R29   R(24,26)                1.07           estimate D2E/DX2                !
 ! R30   R(24,27)                1.07           estimate D2E/DX2                !
 ! R31   R(28,29)                1.07           estimate D2E/DX2                !
 ! R32   R(28,30)                1.07           estimate D2E/DX2                !
 ! R33   R(28,31)                1.54           estimate D2E/DX2                !
 ! R34   R(31,32)                1.07           estimate D2E/DX2                !
 ! R35   R(31,33)                1.07           estimate D2E/DX2                !
 ! R36   R(31,34)                1.07           estimate D2E/DX2                !
 ! R37   R(35,36)                1.07           estimate D2E/DX2                !
 ! R38   R(35,37)                1.07           estimate D2E/DX2                !
 ! R39   R(35,38)                1.54           estimate D2E/DX2                !
 ! R40   R(38,39)                1.07           estimate D2E/DX2                !
 ! R41   R(38,40)                1.07           estimate D2E/DX2                !
 ! R42   R(38,41)                1.07           estimate D2E/DX2                !
 ! R43   R(42,43)                1.07           estimate D2E/DX2                !
 ! R44   R(42,44)                1.07           estimate D2E/DX2                !
 ! R45   R(42,45)                1.07           estimate D2E/DX2                !
 ! A1    A(2,1,3)              109.4713         estimate D2E/DX2                !
 ! A2    A(2,1,4)              109.4712         estimate D2E/DX2                !
 ! A3    A(2,1,5)              109.4712         estimate D2E/DX2                !
 ! A4    A(3,1,4)              109.4712         estimate D2E/DX2                !
 ! A5    A(3,1,5)              109.4712         estimate D2E/DX2                !
 ! A6    A(4,1,5)              109.4712         estimate D2E/DX2                !
 ! A7    A(1,4,42)             162.4818         estimate D2E/DX2                !
 ! A8    A(1,5,6)              109.4712         estimate D2E/DX2                !
 ! A9    A(1,5,7)              109.4712         estimate D2E/DX2                !
 ! A10   A(1,5,8)              109.4712         estimate D2E/DX2                !
 ! A11   A(6,5,7)              109.4712         estimate D2E/DX2                !
 ! A12   A(6,5,8)              109.4713         estimate D2E/DX2                !
 ! A13   A(7,5,8)              109.4712         estimate D2E/DX2                !
 ! A14   A(5,8,9)              109.4712         estimate D2E/DX2                !
 ! A15   A(5,8,16)             109.4712         estimate D2E/DX2                !
 ! A16   A(5,8,19)             109.4712         estimate D2E/DX2                !
 ! A17   A(9,8,16)             109.4712         estimate D2E/DX2                !
 ! A18   A(9,8,19)             109.4713         estimate D2E/DX2                !
 ! A19   A(16,8,19)            109.4712         estimate D2E/DX2                !
 ! A20   A(8,9,10)             109.4706         estimate D2E/DX2                !
 ! A21   A(8,9,11)             109.4726         estimate D2E/DX2                !
 ! A22   A(8,9,12)             109.4704         estimate D2E/DX2                !
 ! A23   A(10,9,11)            109.4712         estimate D2E/DX2                !
 ! A24   A(10,9,12)            109.4713         estimate D2E/DX2                !
 ! A25   A(11,9,12)            109.4712         estimate D2E/DX2                !
 ! A26   A(9,12,13)            109.4712         estimate D2E/DX2                !
 ! A27   A(9,12,14)            109.4712         estimate D2E/DX2                !
 ! A28   A(9,12,15)            109.4712         estimate D2E/DX2                !
 ! A29   A(13,12,14)           109.4713         estimate D2E/DX2                !
 ! A30   A(13,12,15)           109.4712         estimate D2E/DX2                !
 ! A31   A(14,12,15)           109.4712         estimate D2E/DX2                !
 ! A32   A(8,16,17)            109.4712         estimate D2E/DX2                !
 ! A33   A(8,16,18)            109.4712         estimate D2E/DX2                !
 ! A34   A(8,16,22)            109.4712         estimate D2E/DX2                !
 ! A35   A(17,16,18)           109.4712         estimate D2E/DX2                !
 ! A36   A(17,16,22)           109.4713         estimate D2E/DX2                !
 ! A37   A(18,16,22)           109.4712         estimate D2E/DX2                !
 ! A38   A(8,19,20)            109.4712         estimate D2E/DX2                !
 ! A39   A(8,19,21)            109.4712         estimate D2E/DX2                !
 ! A40   A(8,19,23)            109.4712         estimate D2E/DX2                !
 ! A41   A(20,19,21)           109.4712         estimate D2E/DX2                !
 ! A42   A(20,19,23)           109.4713         estimate D2E/DX2                !
 ! A43   A(21,19,23)           109.4712         estimate D2E/DX2                !
 ! A44   A(16,22,35)           109.4947         estimate D2E/DX2                !
 ! A45   A(16,22,42)           109.4572         estimate D2E/DX2                !
 ! A46   A(35,22,42)           109.4713         estimate D2E/DX2                !
 ! A47   A(19,23,24)           109.4712         estimate D2E/DX2                !
 ! A48   A(19,23,28)           109.4712         estimate D2E/DX2                !
 ! A49   A(24,23,28)           109.4713         estimate D2E/DX2                !
 ! A50   A(23,24,25)           109.4712         estimate D2E/DX2                !
 ! A51   A(23,24,26)           109.4712         estimate D2E/DX2                !
 ! A52   A(23,24,27)           109.4712         estimate D2E/DX2                !
 ! A53   A(25,24,26)           109.4713         estimate D2E/DX2                !
 ! A54   A(25,24,27)           109.4712         estimate D2E/DX2                !
 ! A55   A(26,24,27)           109.4712         estimate D2E/DX2                !
 ! A56   A(23,28,29)           109.4712         estimate D2E/DX2                !
 ! A57   A(23,28,30)           109.4712         estimate D2E/DX2                !
 ! A58   A(23,28,31)           109.4712         estimate D2E/DX2                !
 ! A59   A(29,28,30)           109.4713         estimate D2E/DX2                !
 ! A60   A(29,28,31)           109.4712         estimate D2E/DX2                !
 ! A61   A(30,28,31)           109.4712         estimate D2E/DX2                !
 ! A62   A(28,31,32)           109.4712         estimate D2E/DX2                !
 ! A63   A(28,31,33)           109.4712         estimate D2E/DX2                !
 ! A64   A(28,31,34)           109.4712         estimate D2E/DX2                !
 ! A65   A(32,31,33)           109.4713         estimate D2E/DX2                !
 ! A66   A(32,31,34)           109.4712         estimate D2E/DX2                !
 ! A67   A(33,31,34)           109.4712         estimate D2E/DX2                !
 ! A68   A(22,35,36)           109.4712         estimate D2E/DX2                !
 ! A69   A(22,35,37)           109.4712         estimate D2E/DX2                !
 ! A70   A(22,35,38)           109.4712         estimate D2E/DX2                !
 ! A71   A(36,35,37)           109.4712         estimate D2E/DX2                !
 ! A72   A(36,35,38)           109.4713         estimate D2E/DX2                !
 ! A73   A(37,35,38)           109.4712         estimate D2E/DX2                !
 ! A74   A(35,38,39)           109.4712         estimate D2E/DX2                !
 ! A75   A(35,38,40)           109.4712         estimate D2E/DX2                !
 ! A76   A(35,38,41)           109.4712         estimate D2E/DX2                !
 ! A77   A(39,38,40)           109.4713         estimate D2E/DX2                !
 ! A78   A(39,38,41)           109.4712         estimate D2E/DX2                !
 ! A79   A(40,38,41)           109.4712         estimate D2E/DX2                !
 ! A80   A(4,42,22)             83.8016         estimate D2E/DX2                !
 ! A81   A(4,42,43)             64.3919         estimate D2E/DX2                !
 ! A82   A(4,42,44)             64.3354         estimate D2E/DX2                !
 ! A83   A(22,42,43)           109.4712         estimate D2E/DX2                !
 ! A84   A(22,42,44)           109.4712         estimate D2E/DX2                !
 ! A85   A(22,42,45)           109.4712         estimate D2E/DX2                !
 ! A86   A(43,42,44)           109.4713         estimate D2E/DX2                !
 ! A87   A(43,42,45)           109.4712         estimate D2E/DX2                !
 ! A88   A(44,42,45)           109.4712         estimate D2E/DX2                !
 ! A89   L(4,42,45,22,-1)      193.2728         estimate D2E/DX2                !
 ! A90   L(4,42,45,22,-2)      180.0313         estimate D2E/DX2                !
 ! D1    D(2,1,4,42)          -141.75           estimate D2E/DX2                !
 ! D2    D(3,1,4,42)            98.2499         estimate D2E/DX2                !
 ! D3    D(5,1,4,42)           -21.7501         estimate D2E/DX2                !
 ! D4    D(2,1,5,6)            180.0            estimate D2E/DX2                !
 ! D5    D(2,1,5,7)            -60.0            estimate D2E/DX2                !
 ! D6    D(2,1,5,8)             59.9999         estimate D2E/DX2                !
 ! D7    D(3,1,5,6)            -60.0            estimate D2E/DX2                !
 ! D8    D(3,1,5,7)             60.0            estimate D2E/DX2                !
 ! D9    D(3,1,5,8)            180.0            estimate D2E/DX2                !
 ! D10   D(4,1,5,6)             60.0            estimate D2E/DX2                !
 ! D11   D(4,1,5,7)            180.0            estimate D2E/DX2                !
 ! D12   D(4,1,5,8)            -60.0            estimate D2E/DX2                !
 ! D13   D(1,4,42,22)           91.245          estimate D2E/DX2                !
 ! D14   D(1,4,42,43)         -153.6758         estimate D2E/DX2                !
 ! D15   D(1,4,42,44)          -23.8537         estimate D2E/DX2                !
 ! D16   D(1,5,8,9)            179.9988         estimate D2E/DX2                !
 ! D17   D(1,5,8,16)            59.9989         estimate D2E/DX2                !
 ! D18   D(1,5,8,19)           -60.0011         estimate D2E/DX2                !
 ! D19   D(6,5,8,9)             59.9989         estimate D2E/DX2                !
 ! D20   D(6,5,8,16)           -60.0011         estimate D2E/DX2                !
 ! D21   D(6,5,8,19)           179.9989         estimate D2E/DX2                !
 ! D22   D(7,5,8,9)            -60.0012         estimate D2E/DX2                !
 ! D23   D(7,5,8,16)           179.9989         estimate D2E/DX2                !
 ! D24   D(7,5,8,19)            59.9989         estimate D2E/DX2                !
 ! D25   D(5,8,9,10)           -60.0067         estimate D2E/DX2                !
 ! D26   D(5,8,9,11)            59.9937         estimate D2E/DX2                !
 ! D27   D(5,8,9,12)           179.9941         estimate D2E/DX2                !
 ! D28   D(16,8,9,10)           59.9933         estimate D2E/DX2                !
 ! D29   D(16,8,9,11)          179.9937         estimate D2E/DX2                !
 ! D30   D(16,8,9,12)          -60.0059         estimate D2E/DX2                !
 ! D31   D(19,8,9,10)          179.9933         estimate D2E/DX2                !
 ! D32   D(19,8,9,11)          -60.0063         estimate D2E/DX2                !
 ! D33   D(19,8,9,12)           59.9941         estimate D2E/DX2                !
 ! D34   D(5,8,16,17)           60.0138         estimate D2E/DX2                !
 ! D35   D(5,8,16,18)         -179.9862         estimate D2E/DX2                !
 ! D36   D(5,8,16,22)          -59.9862         estimate D2E/DX2                !
 ! D37   D(9,8,16,17)          -59.9861         estimate D2E/DX2                !
 ! D38   D(9,8,16,18)           60.0139         estimate D2E/DX2                !
 ! D39   D(9,8,16,22)         -179.9862         estimate D2E/DX2                !
 ! D40   D(19,8,16,17)        -179.9862         estimate D2E/DX2                !
 ! D41   D(19,8,16,18)         -59.9862         estimate D2E/DX2                !
 ! D42   D(19,8,16,22)          60.0138         estimate D2E/DX2                !
 ! D43   D(5,8,19,20)          -60.1111         estimate D2E/DX2                !
 ! D44   D(5,8,19,21)           59.8889         estimate D2E/DX2                !
 ! D45   D(5,8,19,23)          179.8888         estimate D2E/DX2                !
 ! D46   D(9,8,19,20)           59.8888         estimate D2E/DX2                !
 ! D47   D(9,8,19,21)          179.8888         estimate D2E/DX2                !
 ! D48   D(9,8,19,23)          -60.1112         estimate D2E/DX2                !
 ! D49   D(16,8,19,20)         179.8889         estimate D2E/DX2                !
 ! D50   D(16,8,19,21)         -60.1111         estimate D2E/DX2                !
 ! D51   D(16,8,19,23)          59.8888         estimate D2E/DX2                !
 ! D52   D(8,9,12,13)          179.8841         estimate D2E/DX2                !
 ! D53   D(8,9,12,14)          -60.1159         estimate D2E/DX2                !
 ! D54   D(8,9,12,15)           59.8841         estimate D2E/DX2                !
 ! D55   D(10,9,12,13)          59.8853         estimate D2E/DX2                !
 ! D56   D(10,9,12,14)         179.8853         estimate D2E/DX2                !
 ! D57   D(10,9,12,15)         -60.1147         estimate D2E/DX2                !
 ! D58   D(11,9,12,13)         -60.1147         estimate D2E/DX2                !
 ! D59   D(11,9,12,14)          59.8853         estimate D2E/DX2                !
 ! D60   D(11,9,12,15)         179.8853         estimate D2E/DX2                !
 ! D61   D(8,16,22,35)        -150.9336         estimate D2E/DX2                !
 ! D62   D(8,16,22,42)          89.0605         estimate D2E/DX2                !
 ! D63   D(17,16,22,35)         89.0664         estimate D2E/DX2                !
 ! D64   D(17,16,22,42)        -30.9395         estimate D2E/DX2                !
 ! D65   D(18,16,22,35)        -30.9336         estimate D2E/DX2                !
 ! D66   D(18,16,22,42)       -150.9395         estimate D2E/DX2                !
 ! D67   D(8,19,23,24)         124.1707         estimate D2E/DX2                !
 ! D68   D(8,19,23,28)        -115.8293         estimate D2E/DX2                !
 ! D69   D(20,19,23,24)          4.1707         estimate D2E/DX2                !
 ! D70   D(20,19,23,28)        124.1707         estimate D2E/DX2                !
 ! D71   D(21,19,23,24)       -115.8293         estimate D2E/DX2                !
 ! D72   D(21,19,23,28)          4.1707         estimate D2E/DX2                !
 ! D73   D(16,22,35,36)        129.2677         estimate D2E/DX2                !
 ! D74   D(16,22,35,37)          9.2677         estimate D2E/DX2                !
 ! D75   D(16,22,35,38)       -110.7323         estimate D2E/DX2                !
 ! D76   D(42,22,35,36)       -110.735          estimate D2E/DX2                !
 ! D77   D(42,22,35,37)        129.265          estimate D2E/DX2                !
 ! D78   D(42,22,35,38)          9.265          estimate D2E/DX2                !
 ! D79   D(16,22,42,4)         -88.8798         estimate D2E/DX2                !
 ! D80   D(16,22,42,43)       -148.9112         estimate D2E/DX2                !
 ! D81   D(16,22,42,44)        -28.9112         estimate D2E/DX2                !
 ! D82   D(16,22,42,45)         91.0888         estimate D2E/DX2                !
 ! D83   D(35,22,42,4)         151.0999         estimate D2E/DX2                !
 ! D84   D(35,22,42,43)         91.0686         estimate D2E/DX2                !
 ! D85   D(35,22,42,44)       -148.9314         estimate D2E/DX2                !
 ! D86   D(35,22,42,45)        -28.9314         estimate D2E/DX2                !
 ! D87   D(19,23,24,25)         79.8338         estimate D2E/DX2                !
 ! D88   D(19,23,24,26)       -160.1662         estimate D2E/DX2                !
 ! D89   D(19,23,24,27)        -40.1662         estimate D2E/DX2                !
 ! D90   D(28,23,24,25)        -40.1662         estimate D2E/DX2                !
 ! D91   D(28,23,24,26)         79.8338         estimate D2E/DX2                !
 ! D92   D(28,23,24,27)       -160.1662         estimate D2E/DX2                !
 ! D93   D(19,23,28,29)        -24.7561         estimate D2E/DX2                !
 ! D94   D(19,23,28,30)         95.2439         estimate D2E/DX2                !
 ! D95   D(19,23,28,31)       -144.7561         estimate D2E/DX2                !
 ! D96   D(24,23,28,29)         95.2439         estimate D2E/DX2                !
 ! D97   D(24,23,28,30)       -144.7561         estimate D2E/DX2                !
 ! D98   D(24,23,28,31)        -24.7561         estimate D2E/DX2                !
 ! D99   D(23,28,31,32)         72.002          estimate D2E/DX2                !
 ! D100  D(23,28,31,33)       -167.998          estimate D2E/DX2                !
 ! D101  D(23,28,31,34)        -47.998          estimate D2E/DX2                !
 ! D102  D(29,28,31,32)        -47.998          estimate D2E/DX2                !
 ! D103  D(29,28,31,33)         72.002          estimate D2E/DX2                !
 ! D104  D(29,28,31,34)       -167.998          estimate D2E/DX2                !
 ! D105  D(30,28,31,32)       -167.998          estimate D2E/DX2                !
 ! D106  D(30,28,31,33)        -47.998          estimate D2E/DX2                !
 ! D107  D(30,28,31,34)         72.002          estimate D2E/DX2                !
 ! D108  D(22,35,38,39)       -178.069          estimate D2E/DX2                !
 ! D109  D(22,35,38,40)        -58.069          estimate D2E/DX2                !
 ! D110  D(22,35,38,41)         61.931          estimate D2E/DX2                !
 ! D111  D(36,35,38,39)        -58.069          estimate D2E/DX2                !
 ! D112  D(36,35,38,40)         61.931          estimate D2E/DX2                !
 ! D113  D(36,35,38,41)       -178.069          estimate D2E/DX2                !
 ! D114  D(37,35,38,39)         61.931          estimate D2E/DX2                !
 ! D115  D(37,35,38,40)       -178.069          estimate D2E/DX2                !
 ! D116  D(37,35,38,41)        -58.069          estimate D2E/DX2                !
 --------------------------------------------------------------------------------
 Trust Radius=3.00D-01 FncErr=1.00D-07 GrdErr=1.00D-06 EigMax=2.50D+02 EigMin=1.00D-04
 Number of steps in this run=    261 maximum allowed number of steps=    270.
 GradGradGradGradGradGradGradGradGradGradGradGradGradGradGradGradGradGrad

                          Input orientation:                          
 ---------------------------------------------------------------------
 Center     Atomic      Atomic             Coordinates (Angstroms)
 Number     Number       Type             X           Y           Z
 ---------------------------------------------------------------------
      1          6           0       -4.955882    1.764706    0.000000
      2          1           0       -4.599209    2.269104    0.873652
      3          1           0       -4.599209    2.269104   -0.873652
      4          1           0       -6.025882    1.764719    0.000000
      5          6           0       -4.442567    0.312774    0.000000
      6          1           0       -4.799240   -0.191625   -0.873651
      7          1           0       -3.372567    0.312761   -0.000001
      8          6           0       -4.955908   -0.413182    1.257405
      9          6           0       -4.442616   -1.865123    1.257391
     10          1           0       -4.799408   -2.369535    0.383796
     11          1           0       -3.372616   -1.865179    1.257269
     12          6           0       -4.955845   -2.591018    2.514877
     13          1           0       -4.600881   -3.600424    2.513860
     14          1           0       -4.597404   -2.087773    3.388470
     15          1           0       -6.025843   -2.589213    2.516010
     16          6           0       -6.495908   -0.413138    1.257421
     17          1           0       -6.852598   -0.917737    0.383892
     18          1           0       -6.852580   -0.917325    2.131195
     19          6           0       -4.442541    0.312759    2.514809
     20          1           0       -3.372543    0.311034    2.515777
     21          1           0       -4.797580    1.322138    2.513841
     22          7           0       -6.985868    0.972805    1.257101
     23          7           0       -4.934743   -0.378645    3.715058
     24          6           0       -3.796243   -0.754010    4.565834
     25          1           0       -3.475128    0.097776    5.128192
     26          1           0       -4.093740   -1.532755    5.236618
     27          1           0       -2.991156   -1.100274    3.951963
     28          6           0       -5.831216    0.515077    4.462384
     29          1           0       -5.591340    1.532692    4.234742
     30          1           0       -6.845309    0.316920    4.184446
     31          6           0       -5.656085    0.271953    5.972953
     32          1           0       -4.712817    0.664821    6.290440
     33          1           0       -6.444019    0.761071    6.506642
     34          1           0       -5.689740   -0.778959    6.171327
     35          6           0       -8.291318    1.031778    1.930318
     36          1           0       -8.275338    1.802264    2.672609
     37          1           0       -8.494625    0.090776    2.397310
     38          6           0       -9.389323    1.338975    0.895129
     39          1           0      -10.334887    1.415213    1.390099
     40          1           0       -9.168100    2.263659    0.404291
     41          1           0       -9.427880    0.551496    0.171741
     42          6           0       -7.127662    1.441717   -0.128871
     43          1           0       -6.946953    2.495579   -0.169099
     44          1           0       -6.420235    0.934530   -0.751131
     45          1           0       -8.119011    1.236358   -0.475218
 ---------------------------------------------------------------------
                    Distance matrix (angstroms):
                    1          2          3          4          5
     1  C    0.000000
     2  H    1.070000   0.000000
     3  H    1.070000   1.747303   0.000000
     4  H    1.070000   1.747303   1.747303   0.000000
     5  C    1.540000   2.148263   2.148263   2.148263   0.000000
     6  H    2.148263   3.024610   2.468846   2.468846   1.070000
     7  H    2.148263   2.468846   2.468846   3.024610   1.070000
     8  C    2.514809   2.732977   3.444314   2.732978   1.540000
     9  C    3.875581   4.154950   4.653783   4.154939   2.514809
    10  H    4.154965   4.668727   4.810221   4.329387   2.733023
    11  H    4.154939   4.329433   4.810161   4.668694   2.732947
    12  C    5.029606   5.142140   5.935495   5.142182   3.875574
    13  H    5.935498   6.094395   6.776916   6.093839   4.653780
    14  H    5.143134   5.030576   6.094921   5.325784   4.155518
    15  H    5.141180   5.323145   6.093302   5.028621   4.154346
    16  C    2.948863   3.307441   3.915784   2.558338   2.514810
    17  H    3.307628   3.933647   4.100625   2.833090   2.733090
    18  H    3.915705   4.100296   4.925456   3.524029   3.444314
    19  C    2.948887   2.558365   3.915801   3.307480   2.514809
    20  H    3.308967   2.834665   4.102070   3.934787   2.733878
    21  H    2.557405   1.904289   3.522953   2.832667   2.732077
    22  N    2.515601   2.742911   3.452048   1.768898   2.912786
    23  N    4.289063   3.898301   5.308429   4.425636   3.810768
    24  C    5.341866   4.839027   6.274709   5.671166   4.733139
    25  H    5.591927   4.907071   6.480768   5.965183   5.223075
    26  H    6.248096   5.809054   7.214224   6.482953   5.563256
    27  H    5.261775   4.838858   6.101238   5.747674   4.440868
    28  C    4.715999   4.180126   5.750454   4.638143   4.677835
    29  H    4.288435   3.580999   5.255693   4.263297   4.554220
    30  H    4.814105   4.451668   5.868589   4.503018   4.825223
    31  C    6.196351   5.577497   7.209826   6.167760   6.095118
    32  H    6.390498   5.650507   7.342401   6.519475   6.306077
    33  H    6.749683   6.116213   7.755399   6.596858   6.822256
    34  H    6.715211   6.208487   7.753172   6.683455   6.390039
    35  C    3.922811   4.034747   4.798426   3.065213   4.365316
    36  H    4.261811   4.119236   5.129115   3.493465   4.904239
    37  H    4.590407   4.716027   5.533404   3.826731   4.713338
    38  C    4.542895   4.879630   5.190270   3.506458   5.130764
    39  H    5.566706   5.821842   6.225086   4.541151   6.153632
    40  H    4.260890   4.592939   4.744252   3.207168   5.128359
    41  H    4.636824   5.172902   5.230591   3.615936   4.993979
    42  C    2.199445   2.843008   2.762669   1.155360   2.915623
    43  H    2.127706   2.578860   2.461622   1.187906   3.326437
    44  H    1.843290   2.781572   2.261025   1.186982   2.204983
    45  H    3.241969   3.908326   3.689758   2.210471   3.820351
                    6          7          8          9         10
     6  H    0.000000
     7  H    1.747303   0.000000
     8  C    2.148263   2.148263   0.000000
     9  C    2.732968   2.732987   1.540000   0.000000
    10  H    2.514849   3.062333   2.148255   1.070000   0.000000
    11  H    3.062166   2.514786   2.148280   1.070000   1.747303
    12  C    4.154966   4.154914   2.514797   1.540000   2.148263
    13  H    4.809833   4.810537   3.444304   2.148263   2.468132
    14  H    4.669239   4.329495   2.733901   2.148263   3.024610
    15  H    4.329294   4.668151   2.732024   2.148263   2.469562
    16  C    2.732987   3.444314   1.540000   2.514809   2.732914
    17  H    2.514942   3.711080   2.148263   2.732865   2.514618
    18  H    3.711057   4.262112   2.148263   2.733090   3.062324
    19  C    3.444314   2.732968   1.540000   2.514810   3.444310
    20  H    3.711651   2.515778   2.148263   2.732078   3.710355
    21  H    3.710335   3.060867   2.148263   3.444314   4.262105
    22  N    3.267620   3.882256   2.457987   3.810770   4.088338
    23  N    4.594518   4.089022   2.457987   2.914092   3.883203
    24  C    5.559701   4.707902   3.522312   3.549390   4.594094
    25  H    6.152979   5.133722   4.175737   4.446584   5.509141
    26  H    6.295375   5.598946   4.222666   4.008295   4.974741
    27  H    5.232721   4.214281   3.404847   3.154750   4.196739
    28  C    5.480663   5.098898   3.449597   4.226765   5.101029
    29  H    5.449437   4.933987   3.613133   4.661473   5.539342
    30  H    5.479905   5.437789   3.559558   4.370571   5.084062
    31  C    6.915568   6.394709   4.816227   5.317530   6.240996
    32  H    7.215620   6.441263   5.152924   5.639611   6.641029
    33  H    7.621132   7.209106   5.581024   6.201383   7.070692
    34  H    7.125284   6.681799   4.981860   5.184770   6.067795
    35  C    4.642582   5.332657   3.696713   4.863885   5.114107
    36  H    5.351150   5.779155   4.234338   5.490202   5.892763
    37  H    4.943157   5.659669   3.751783   4.641522   4.874628
    38  C    5.151716   6.168932   4.780844   5.904861   5.922991
    39  H    6.192728   7.184823   5.682786   6.745152   6.780744
    40  H    5.171894   6.128431   5.063185   6.332836   6.368074
    41  H    4.803059   6.062450   4.701893   5.645488   5.477238
    42  C    2.940077   3.923250   3.174733   4.479552   4.495468
    43  H    3.511428   4.191602   3.802639   5.227073   5.346679
    44  H    1.977589   3.199856   2.827508   3.972806   3.851231
    45  H    3.635761   4.858765   3.965878   5.112435   4.975955
                   11         12         13         14         15
    11  H    0.000000
    12  C    2.148263   0.000000
    13  H    2.469561   1.070000   0.000000
    14  H    2.468131   1.070000   1.747303   0.000000
    15  H    3.024610   1.070000   1.747303   1.747303   0.000000
    16  C    3.444325   2.948924   3.915170   3.309092   2.557402
    17  H    3.710890   3.307361   4.099244   3.934765   2.832540
    18  H    3.711108   2.558528   3.523577   2.834874   1.904412
    19  C    2.733049   2.948797   3.916385   2.559261   3.305796
    20  H    2.513910   3.305866   4.099795   2.831281   3.930831
    21  H    3.710590   3.916355   4.926490   3.525981   4.099671
    22  N    4.594534   4.289969   5.308675   4.428841   3.898009
    23  N    3.269671   2.517037   3.454591   1.772449   2.741319
    24  C    3.515786   2.987591   3.600016   1.951146   3.541309
    25  H    4.341399   4.031321   4.666769   3.010442   4.533161
    26  H    4.057799   3.044834   3.456278   1.994335   3.500119
    27  H    2.827006   2.854389   3.303045   1.967920   3.672632
    28  C    4.688613   3.769202   4.716759   3.074152   3.669179
    29  H    5.033250   4.512956   5.503755   3.848616   4.486973
    30  H    5.038801   3.848849   4.813927   3.386621   3.449756
    31  C    5.658554   4.543702   5.298498   3.656318   4.502604
    32  H    5.790496   4.991435   5.698017   4.001440   5.153552
    33  H    6.624698   5.420826   6.193715   4.609652   5.227277
    34  H    5.540478   4.146298   4.745876   3.263508   4.092839
    35  C    5.747955   4.959007   5.951230   5.050031   4.311263
    36  H    6.284107   5.508615   6.535737   5.401115   4.936580
    37  H    5.600038   4.441712   5.366543   4.573489   3.645726
    38  C    6.826310   6.142000   7.067328   6.397018   5.419494
    39  H    7.697521   6.800670   7.700537   7.013067   5.989238
    40  H    7.166764   6.765024   7.726398   6.980798   6.154957
    41  H    6.609456   5.946829   6.784089   6.375467   5.189750
    42  C    5.192043   5.288586   6.228309   5.588488   4.945482
    43  H    5.816065   6.086190   7.061414   6.259696   5.823518
    44  H    4.600002   5.024016   5.876735   5.439975   4.821464
    45  H    5.928685   5.796128   6.686275   6.195131   5.288080
                   16         17         18         19         20
    16  C    0.000000
    17  H    1.070000   0.000000
    18  H    1.070000   1.747303   0.000000
    19  C    2.514809   3.444314   2.732866   0.000000
    20  H    3.444313   4.262111   3.710449   1.070000   0.000000
    21  H    2.733878   3.711713   3.063436   1.070000   1.747303
    22  N    1.470000   2.086720   2.086720   2.913075   3.883082
    23  N    2.911770   3.881424   2.544975   1.470000   2.086720
    24  C    4.283688   5.182350   3.910925   2.400500   2.348738
    25  H    4.936498   5.911594   4.628132   2.794973   2.623112
    26  H    4.781000   5.615914   4.199239   3.306936   3.364916
    27  H    4.473924   5.260720   4.273086   2.483665   2.049360
    28  C    3.402232   4.441877   2.920514   2.400500   3.142608
    29  H    3.670005   4.735442   3.466730   2.401280   3.061103
    30  H    3.036863   3.996078   2.395674   2.925918   3.852869
    31  C    4.838480   5.838202   4.195842   3.665121   4.143448
    32  H    5.447265   6.478461   4.937722   3.801630   4.021142
    33  H    5.379199   6.361871   4.704091   4.487942   5.056036
    34  H    4.993015   5.904735   4.206425   4.014658   4.463243
    35  C    2.400848   2.874362   2.430910   3.958751   5.005656
    36  H    3.174450   3.828944   3.116654   4.115077   5.126964
    37  H    2.355450   2.786970   1.945095   4.059860   5.128184
    38  C    3.401912   3.433524   3.613006   5.305387   6.315442
    39  H    4.254202   4.310620   4.256339   6.099190   7.138669
    40  H    3.877329   3.934875   4.296800   5.530932   6.469899
    41  H    3.271953   2.972495   3.553739   5.513671   6.497648
    42  C    2.400293   2.430145   3.278513   3.933633   4.730066
    43  H    3.270938   3.459108   4.116816   4.270848   4.975661
    44  H    2.419962   2.214973   3.453128   3.868364   4.511082
    45  H    2.890906   2.642347   3.610483   4.828015   5.686056
                   21         22         23         24         25
    21  H    0.000000
    22  N    2.547555   0.000000
    23  N    2.086720   3.474923   0.000000
    24  C    3.086056   4.909513   1.470000   0.000000
    25  H    3.175339   5.298710   2.086720   1.070000   0.000000
    26  H    4.007408   5.520760   2.086720   1.070000   1.747303
    27  H    3.346557   5.245728   2.086720   1.070000   1.747303
    28  C    2.348738   3.437525   1.470000   2.400500   2.483665
    29  H    1.906800   3.335345   2.086720   2.925919   2.708430
    30  H    2.827468   3.003214   2.086720   3.254098   3.506680
    31  C    3.715559   4.949624   2.457987   2.547862   2.345322
    32  H    3.834313   5.531377   2.787591   2.414012   1.790037
    33  H    4.355229   5.281678   3.371915   3.615650   3.339820
    34  H    4.311353   5.375709   2.600678   2.482652   2.600250
    35  C    3.554014   1.470000   4.054774   5.508238   5.856146
    36  H    3.514332   2.086720   4.123426   5.493735   5.654837
    37  H    3.898458   2.086720   3.824863   5.243182   5.714291
    38  C    4.868738   2.457987   5.544863   7.009794   7.378150
    39  H    5.650949   3.380731   6.146944   7.585822   7.922454
    40  H    4.943491   2.675018   5.988678   7.435160   7.708192
    41  H    5.245855   2.705352   5.797287   7.261386   7.759350
    42  C    3.525267   1.470000   4.785228   6.161154   6.540940
    43  H    3.632483   2.086720   5.234198   6.550297   6.772320
    44  H    3.666509   2.086720   4.886508   6.164951   6.628744
    45  H    4.469198   2.086720   5.505108   6.932539   7.366154
                   26         27         28         29         30
    26  H    0.000000
    27  H    1.747303   0.000000
    28  C    2.794974   3.306937   0.000000
    29  H    3.555774   3.711257   1.070000   0.000000
    30  H    3.478433   4.113026   1.070000   1.747303   0.000000
    31  C    2.498016   3.615142   1.540000   2.148263   2.148263
    32  H    2.514585   3.398257   2.148263   2.398104   3.017246
    33  H    3.521138   4.681159   2.148263   2.546368   2.398104
    34  H    1.997275   3.508728   2.148263   3.017246   2.546368
    35  C    5.926898   6.060067   3.567974   3.584852   2.771833
    36  H    5.931463   6.163120   3.291485   3.117174   2.556732
    37  H    5.483185   5.841551   3.396809   3.726170   2.442384
    38  C    7.425534   7.498714   5.105315   5.061147   4.282080
    39  H    7.901781   8.174424   5.525598   5.532362   4.603453
    40  H    7.969521   7.877605   5.537187   5.291491   4.845071
    41  H    7.645268   7.645249   5.598833   5.673601   4.777708
    42  C    6.844022   6.342366   4.859943   4.627059   4.466496
    43  H    7.320524   6.749936   5.159252   4.707298   4.869316
    44  H    6.881367   6.165882   5.263423   5.089577   4.992198
    45  H    7.516373   7.166218   5.489459   5.353565   4.917332
                   31         32         33         34         35
    31  C    0.000000
    32  H    1.070000   0.000000
    33  H    1.070000   1.747303   0.000000
    34  H    1.070000   1.747303   1.747303   0.000000
    35  C    4.885150   5.652522   4.942524   5.294633   0.000000
    36  H    4.482701   5.203272   4.374657   5.058563   1.070000
    37  H    4.568956   5.457845   4.641217   4.781948   1.070000
    38  C    6.392175   7.171721   6.363794   6.783128   1.540000
    39  H    6.648367   7.495606   6.461097   7.017972   2.148263
    40  H    6.878309   7.553316   6.849604   7.390211   2.148263
    41  H    6.925217   7.725487   7.005592   7.192971   2.148263
    42  C    6.384837   6.902362   6.705272   6.833119   2.400500
    43  H    6.658502   7.075923   6.915705   7.245977   2.890948
    44  H    6.799723   7.250638   7.259885   7.168688   3.271174
    45  H    6.969576   7.596246   7.195684   7.357950   2.420361
                   36         37         38         39         40
    36  H    0.000000
    37  H    1.747303   0.000000
    38  C    2.148263   2.148263   0.000000
    39  H    2.456905   2.480962   1.070000   0.000000
    40  H    2.480963   3.024419   1.070000   1.747303   0.000000
    41  H    3.024419   2.456905   1.070000   1.747303   1.747303
    42  C    3.048843   3.174148   2.484801   3.548839   2.263457
    43  H    3.212569   3.842502   2.904390   3.882832   2.305658
    44  H    3.989532   3.863637   3.418951   4.487808   3.263793
    45  H    3.202109   3.115263   1.871383   2.901983   1.711570
                   41         42         43         44         45
    41  H    0.000000
    42  C    2.484725   0.000000
    43  H    3.170273   1.070000   0.000000
    44  H    3.169280   1.070000   1.747303   0.000000
    45  H    1.612678   1.070000   1.747303   1.747303   0.000000
 Stoichiometry    C13H30N2
 Framework group  C1[X(C13H30N2)]
 Deg. of freedom   129
 Full point group                 C1      NOp   1
 Largest Abelian subgroup         C1      NOp   1
 Largest concise Abelian subgroup C1      NOp   1
                         Standard orientation:                         
 ---------------------------------------------------------------------
 Center     Atomic      Atomic             Coordinates (Angstroms)
 Number     Number       Type             X           Y           Z
 ---------------------------------------------------------------------
      1          6           0       -1.755403   -1.404068   -1.686461
      2          1           0       -1.092678   -0.908928   -2.365087
      3          1           0       -2.411165   -2.048037   -2.234348
      4          1           0       -2.332156   -0.675590   -1.155825
      5          6           0       -0.935329   -2.238330   -0.684919
      6          1           0       -1.598054   -2.733469   -0.006292
      7          1           0       -0.358576   -2.966809   -1.215555
      8          6           0        0.008478   -1.311496    0.103628
      9          6           0        0.828531   -2.145754    1.105191
     10          1           0        0.165790   -2.640780    1.783884
     11          1           0        1.405209   -2.874326    0.574601
     12          6           0        1.772438   -1.218924    1.893624
     13          1           0        2.340773   -1.798284    2.590931
     14          1           0        2.436502   -0.725411    1.215123
     15          1           0        1.195869   -0.489111    2.422624
     16          6           0       -0.821613   -0.263013    0.867325
     17          1           0       -1.484179   -0.758129    1.546123
     18          1           0       -0.165837    0.381105    1.415020
     19          6           0        0.962324   -0.598888   -0.873084
     20          1           0        1.540447   -1.327306   -1.402311
     21          1           0        0.392460   -0.020779   -1.570182
     22          7           0       -1.604643    0.533105   -0.088687
     23          7           0        1.861466    0.287829   -0.120637
     24          6           0        3.257599   -0.057971   -0.424174
     25          1           0        3.536250    0.374428   -1.362409
     26          1           0        3.894852    0.321854    0.346892
     27          1           0        3.357928   -1.121899   -0.477946
     28          6           0        1.607694    1.683769   -0.505151
     29          1           0        1.184373    1.711825   -1.487451
     30          1           0        0.925513    2.126823    0.189999
     31          6           0        2.932933    2.468136   -0.494695
     32          1           0        3.533911    2.164096   -1.326130
     33          1           0        2.727883    3.515812   -0.567018
     34          1           0        3.457788    2.269483    0.416329
     35          6           0       -1.822375    1.880455    0.457336
     36          1           0       -1.541996    2.610751   -0.272701
     37          1           0       -1.227405    2.009120    1.337312
     38          6           0       -3.310324    2.055700    0.813563
     39          1           0       -3.475035    3.047595    1.179507
     40          1           0       -3.907523    1.893843   -0.059396
     41          1           0       -3.582248    1.347424    1.568084
     42          6           0       -2.902394   -0.117341   -0.320334
     43          1           0       -3.229753    0.085278   -1.318673
     44          1           0       -2.800811   -1.173982   -0.185827
     45          1           0       -3.621241    0.263225    0.374885
 ---------------------------------------------------------------------
 Rotational constants (GHZ):           0.7420095           0.4567773           0.3592957
 Standard basis: 6-31G(d) (6D, 7F)
 There are   285 symmetry adapted cartesian basis functions of A   symmetry.
 There are   285 symmetry adapted basis functions of A   symmetry.
   285 basis functions,   540 primitive gaussians,   285 cartesian basis functions
    61 alpha electrons       61 beta electrons
       nuclear repulsion energy      1228.6445634605 Hartrees.
 NAtoms=   45 NActive=   45 NUniq=   45 SFac= 1.00D+00 NAtFMM=   60 NAOKFM=F Big=F
 Integral buffers will be    131072 words long.
 Raffenetti 2 integral format.
 Two-electron integral symmetry is turned on.
 ------------------------------------------------------------------------------
 Polarizable Continuum Model (PCM)
 =================================
 Model                : PCM.
 Atomic radii         : SMD-Coulomb.
 Polarization charges : Total charges.
 Charge compensation  : None.
 Solution method      : On-the-fly selection.
 Cavity type          : VdW (van der Waals Surface) (Alpha=1.000).
 Cavity algorithm     : GePol (No added spheres)
                        Default sphere list used, NSphG=   45.
                        Lebedev-Laikov grids with approx.  5.0 points / Ang**2.
                        Smoothing algorithm: York/Karplus (Gamma=1.0000).
                        Polarization charges: spherical gaussians, with
                                              point-specific exponents (IZeta= 3).
                        Self-potential: point-specific (ISelfS= 7).
                        Self-field    : sphere-specific E.n sum rule (ISelfD= 2).
 1st derivatives      : Analytical E(r).r(x)/FMM algorithm (CHGder, D1EAlg=3).
                        Cavity 1st derivative terms included.
 Solvent              : Toluene, Eps=   2.374100 Eps(inf)=   2.238315
 ------------------------------------------------------------------------------
 ------------------------------------------------------------------------------
 Atomic radii for non-electrostatic terms: SMD-CDS.
 ------------------------------------------------------------------------------
 Nuclear repulsion after PCM non-electrostatic terms =     1228.6374835102 Hartrees.
 One-electron integrals computed using PRISM.
 NBasis=   285 RedAO= T EigKep=  1.22D-03  NBF=   285
 NBsUse=   285 1.00D-06 EigRej= -1.00D+00 NBFU=   285
 ExpMin= 1.61D-01 ExpMax= 4.17D+03 ExpMxC= 6.27D+02 IAcc=3 IRadAn=         5 AccDes= 0.00D+00
 Harris functional with IExCor=  402 and IRadAn=       5 diagonalized for initial guess.
 HarFok:  IExCor=  402 AccDes= 0.00D+00 IRadAn=         5 IDoV= 1 UseB2=F ITyADJ=14
 ICtDFT=  3500011 ScaDFX=  1.000000  1.000000  1.000000  1.000000
 FoFCou: FMM=F IPFlag=           0 FMFlag=      100000 FMFlg1=           0
         NFxFlg=           0 DoJE=T BraDBF=F KetDBF=T FulRan=T
         wScrn=  0.000000 ICntrl=       500 IOpCl=  0 I1Cent=   200000004 NGrid=           0
         NMat0=    1 NMatS0=      1 NMatT0=    0 NMatD0=    1 NMtDS0=    0 NMtDT0=    0
 Petite list used in FoFCou.
 Requested convergence on RMS density matrix=1.00D-08 within 128 cycles.
 Requested convergence on MAX density matrix=1.00D-06.
 Requested convergence on             energy=1.00D-06.
 No special actions if energy rises.
 Inv3:  Mode=1 IEnd=    18332352.
 Iteration    1 A*A^-1 deviation from unit magnitude is 4.33D-15 for   2449.
 Iteration    1 A*A^-1 deviation from orthogonality  is 2.19D-15 for   1852   1675.
 Iteration    1 A^-1*A deviation from unit magnitude is 4.11D-15 for   2449.
 Iteration    1 A^-1*A deviation from orthogonality  is 1.39D-15 for   2134    669.
 Error on total polarization charges =  0.03829
 SCF Done:  E(RB3LYP) =  -622.630568453     A.U. after   11 cycles
            NFock= 11  Conv=0.81D-08     -V/T= 2.0055
 SMD-CDS (non-electrostatic) energy       (kcal/mol) =      -4.44
 (included in total energy above)

 **********************************************************************

            Population analysis using the SCF Density.

 **********************************************************************

 Orbital symmetries:
       Occupied  (A) (A) (A) (A) (A) (A) (A) (A) (A) (A) (A) (A)
                 (A) (A) (A) (A) (A) (A) (A) (A) (A) (A) (A) (A)
                 (A) (A) (A) (A) (A) (A) (A) (A) (A) (A) (A) (A)
                 (A) (A) (A) (A) (A) (A) (A) (A) (A) (A) (A) (A)
                 (A) (A) (A) (A) (A) (A) (A) (A) (A) (A) (A) (A)
                 (A)
       Virtual   (A) (A) (A) (A) (A) (A) (A) (A) (A) (A) (A) (A)
                 (A) (A) (A) (A) (A) (A) (A) (A) (A) (A) (A) (A)
                 (A) (A) (A) (A) (A) (A) (A) (A) (A) (A) (A) (A)
                 (A) (A) (A) (A) (A) (A) (A) (A) (A) (A) (A) (A)
                 (A) (A) (A) (A) (A) (A) (A) (A) (A) (A) (A) (A)
                 (A) (A) (A) (A) (A) (A) (A) (A) (A) (A) (A) (A)
                 (A) (A) (A) (A) (A) (A) (A) (A) (A) (A) (A) (A)
                 (A) (A) (A) (A) (A) (A) (A) (A) (A) (A) (A) (A)
                 (A) (A) (A) (A) (A) (A) (A) (A) (A) (A) (A) (A)
                 (A) (A) (A) (A) (A) (A) (A) (A) (A) (A) (A) (A)
                 (A) (A) (A) (A) (A) (A) (A) (A) (A) (A) (A) (A)
                 (A) (A) (A) (A) (A) (A) (A) (A) (A) (A) (A) (A)
                 (A) (A) (A) (A) (A) (A) (A) (A) (A) (A) (A) (A)
                 (A) (A) (A) (A) (A) (A) (A) (A) (A) (A) (A) (A)
                 (A) (A) (A) (A) (A) (A) (A) (A) (A) (A) (A) (A)
                 (A) (A) (A) (A) (A) (A) (A) (A) (A) (A) (A) (A)
                 (A) (A) (A) (A) (A) (A) (A) (A) (A) (A) (A) (A)
                 (A) (A) (A) (A) (A) (A) (A) (A) (A) (A) (A) (A)
                 (A) (A) (A) (A) (A) (A) (A) (A)
 The electronic state is 1-A.
 Alpha  occ. eigenvalues --  -14.30996 -14.29845 -10.19038 -10.18419 -10.17970
 Alpha  occ. eigenvalues --  -10.17945 -10.17932 -10.17213 -10.16346 -10.16048
 Alpha  occ. eigenvalues --  -10.15703 -10.15186 -10.15178 -10.12682 -10.10015
 Alpha  occ. eigenvalues --   -0.93516  -0.91106  -0.80753  -0.79238  -0.74082
 Alpha  occ. eigenvalues --   -0.73393  -0.72244  -0.69571  -0.65977  -0.64636
 Alpha  occ. eigenvalues --   -0.62174  -0.59859  -0.56821  -0.56537  -0.52995
 Alpha  occ. eigenvalues --   -0.51538  -0.49208  -0.47583  -0.46752  -0.45406
 Alpha  occ. eigenvalues --   -0.45022  -0.43570  -0.42824  -0.42366  -0.41554
 Alpha  occ. eigenvalues --   -0.40407  -0.38505  -0.38188  -0.37423  -0.36908
 Alpha  occ. eigenvalues --   -0.36597  -0.36489  -0.36119  -0.35416  -0.34870
 Alpha  occ. eigenvalues --   -0.34200  -0.33669  -0.33322  -0.32828  -0.31295
 Alpha  occ. eigenvalues --   -0.29780  -0.28300  -0.27236  -0.21410  -0.20511
 Alpha  occ. eigenvalues --   -0.18498
 Alpha virt. eigenvalues --    0.08606   0.10146   0.10660   0.11569   0.12490
 Alpha virt. eigenvalues --    0.12843   0.13540   0.13805   0.14266   0.15007
 Alpha virt. eigenvalues --    0.15584   0.16528   0.16800   0.17915   0.18265
 Alpha virt. eigenvalues --    0.18360   0.18490   0.18919   0.19774   0.20335
 Alpha virt. eigenvalues --    0.20530   0.20923   0.21876   0.22200   0.22820
 Alpha virt. eigenvalues --    0.23389   0.24178   0.25049   0.25515   0.26214
 Alpha virt. eigenvalues --    0.26528   0.27568   0.27920   0.28449   0.28763
 Alpha virt. eigenvalues --    0.29360   0.30172   0.31356   0.32048   0.32551
 Alpha virt. eigenvalues --    0.33556   0.34588   0.35970   0.44054   0.49038
 Alpha virt. eigenvalues --    0.52237   0.53147   0.54386   0.55374   0.55506
 Alpha virt. eigenvalues --    0.56183   0.56782   0.58027   0.58970   0.59771
 Alpha virt. eigenvalues --    0.60031   0.60638   0.61772   0.62613   0.63390
 Alpha virt. eigenvalues --    0.64727   0.66927   0.67943   0.68821   0.69902
 Alpha virt. eigenvalues --    0.70739   0.72038   0.73353   0.74389   0.74872
 Alpha virt. eigenvalues --    0.75742   0.78840   0.81001   0.81672   0.81852
 Alpha virt. eigenvalues --    0.81914   0.85218   0.85736   0.86183   0.86856
 Alpha virt. eigenvalues --    0.87125   0.89245   0.89412   0.89997   0.90995
 Alpha virt. eigenvalues --    0.91413   0.91858   0.92674   0.93439   0.93970
 Alpha virt. eigenvalues --    0.94309   0.94756   0.95437   0.95526   0.96466
 Alpha virt. eigenvalues --    0.96702   0.97735   0.99532   0.99727   1.00490
 Alpha virt. eigenvalues --    1.01047   1.02055   1.02185   1.03825   1.04774
 Alpha virt. eigenvalues --    1.05271   1.05787   1.06274   1.08288   1.08987
 Alpha virt. eigenvalues --    1.09771   1.12226   1.14267   1.15237   1.15627
 Alpha virt. eigenvalues --    1.19859   1.21189   1.22166   1.26601   1.26817
 Alpha virt. eigenvalues --    1.32162   1.34204   1.35977   1.37806   1.42179
 Alpha virt. eigenvalues --    1.45194   1.49928   1.50755   1.51929   1.54018
 Alpha virt. eigenvalues --    1.57514   1.57740   1.61433   1.63561   1.65657
 Alpha virt. eigenvalues --    1.69137   1.70557   1.73920   1.76474   1.78859
 Alpha virt. eigenvalues --    1.79548   1.82193   1.83921   1.86069   1.87457
 Alpha virt. eigenvalues --    1.88665   1.89444   1.91209   1.93560   1.95013
 Alpha virt. eigenvalues --    1.96675   1.97439   1.99389   2.00574   2.01226
 Alpha virt. eigenvalues --    2.01716   2.02991   2.04201   2.05313   2.06551
 Alpha virt. eigenvalues --    2.07385   2.07923   2.08819   2.09090   2.11121
 Alpha virt. eigenvalues --    2.13847   2.15602   2.17112   2.19203   2.19794
 Alpha virt. eigenvalues --    2.21540   2.24583   2.26486   2.29037   2.29729
 Alpha virt. eigenvalues --    2.30155   2.31237   2.34109   2.36397   2.36898
 Alpha virt. eigenvalues --    2.37431   2.38106   2.38463   2.39230   2.40685
 Alpha virt. eigenvalues --    2.41640   2.42875   2.47906   2.48762   2.51195
 Alpha virt. eigenvalues --    2.52745   2.55832   2.56326   2.57772   2.59378
 Alpha virt. eigenvalues --    2.59822   2.62923   2.66895   2.68955   2.70921
 Alpha virt. eigenvalues --    2.77448   2.78784   2.80751   2.85830   2.86735
 Alpha virt. eigenvalues --    2.88897   2.94177   2.97142   2.98435   4.16076
 Alpha virt. eigenvalues --    4.18836   4.23556   4.26714   4.30488   4.33980
 Alpha virt. eigenvalues --    4.36404   4.39909   4.43175   4.50035   4.51919
 Alpha virt. eigenvalues --    4.54757   4.59627   4.63519   4.81610
          Condensed to atoms (all electrons):
               1          2          3          4          5          6
     1  C    5.439336   0.340631   0.337817   0.586358   0.363786  -0.054316
     2  H    0.340631   0.605112  -0.026777  -0.032763  -0.024745   0.005927
     3  H    0.337817  -0.026777   0.646999  -0.046338  -0.034718  -0.001511
     4  H    0.586358  -0.032763  -0.046338   0.944739  -0.069348  -0.009508
     5  C    0.363786  -0.024745  -0.034718  -0.069348   5.120007   0.361378
     6  H   -0.054316   0.005927  -0.001511  -0.009508   0.361378   0.615937
     7  H   -0.030869  -0.004122  -0.004994   0.009030   0.365236  -0.035776
     8  C   -0.038737  -0.012449   0.005541  -0.001902   0.373731  -0.032843
     9  C    0.005574   0.000001  -0.000156   0.000273  -0.055773  -0.004768
    10  H    0.000019  -0.000003  -0.000000  -0.000048  -0.006693   0.006001
    11  H   -0.000014  -0.000001  -0.000005   0.000020  -0.004865  -0.000403
    12  C   -0.000204  -0.000002   0.000003   0.000002   0.005281  -0.000022
    13  H    0.000003   0.000000  -0.000000   0.000000  -0.000122  -0.000008
    14  H    0.000002  -0.000004   0.000000   0.000000   0.000076   0.000007
    15  H   -0.000001   0.000000   0.000000  -0.000007   0.000048   0.000008
    16  C   -0.015310   0.000922   0.000081   0.002442  -0.041586  -0.007323
    17  H    0.001287  -0.000092   0.000117  -0.002770  -0.012941   0.004478
    18  H   -0.000549   0.000059   0.000018  -0.000951   0.006553  -0.000109
    19  C   -0.010400   0.002771   0.000315  -0.002334  -0.053802   0.006092
    20  H   -0.000868   0.000751  -0.000021   0.000232  -0.002018  -0.000150
    21  H    0.000901   0.004976   0.000006   0.000493  -0.006160  -0.000117
    22  N   -0.009036  -0.005149   0.004344  -0.117026  -0.008664  -0.000044
    23  N    0.000218   0.000028  -0.000003   0.000007   0.004663  -0.000133
    24  C    0.000005  -0.000001  -0.000000  -0.000001  -0.000269   0.000004
    25  H   -0.000002   0.000005   0.000000   0.000000   0.000018  -0.000000
    26  H    0.000000  -0.000000  -0.000000   0.000000   0.000002  -0.000000
    27  H    0.000000   0.000002  -0.000000  -0.000000  -0.000075   0.000002
    28  C    0.000046  -0.000116   0.000000  -0.000016  -0.000162   0.000005
    29  H   -0.000189   0.000237   0.000002   0.000013   0.000109  -0.000001
    30  H    0.000006  -0.000020  -0.000000  -0.000006  -0.000050   0.000000
    31  C    0.000000  -0.000001   0.000000  -0.000000   0.000002  -0.000000
    32  H   -0.000000  -0.000000  -0.000000   0.000000  -0.000000  -0.000000
    33  H    0.000000   0.000000  -0.000000   0.000000  -0.000000   0.000000
    34  H   -0.000000   0.000000   0.000000   0.000000   0.000000  -0.000000
    35  C   -0.001122   0.000383  -0.000078   0.004499   0.000338  -0.000018
    36  H   -0.000045   0.000030  -0.000007   0.000119   0.000039   0.000000
    37  H   -0.000033  -0.000013   0.000004  -0.000747  -0.000047   0.000002
    38  C    0.000394  -0.000031   0.000006   0.000453  -0.000063  -0.000007
    39  H    0.000023  -0.000001  -0.000000   0.000128  -0.000000  -0.000000
    40  H   -0.000504   0.000026   0.000016  -0.003217   0.000010   0.000001
    41  H   -0.000216   0.000004   0.000000  -0.000017   0.000015   0.000006
    42  C   -0.280695   0.009428   0.002334  -0.194177   0.008329  -0.000967
    43  H   -0.104087   0.006218   0.003408  -0.032955   0.004200   0.000869
    44  H   -0.124726   0.008321   0.011538  -0.200777   0.014458   0.017929
    45  H    0.025414  -0.000781  -0.000528   0.016647  -0.001241  -0.000403
               7          8          9         10         11         12
     1  C   -0.030869  -0.038737   0.005574   0.000019  -0.000014  -0.000204
     2  H   -0.004122  -0.012449   0.000001  -0.000003  -0.000001  -0.000002
     3  H   -0.004994   0.005541  -0.000156  -0.000000  -0.000005   0.000003
     4  H    0.009030  -0.001902   0.000273  -0.000048   0.000020   0.000002
     5  C    0.365236   0.373731  -0.055773  -0.006693  -0.004865   0.005281
     6  H   -0.035776  -0.032843  -0.004768   0.006001  -0.000403  -0.000022
     7  H    0.605010  -0.033424  -0.006167  -0.000500   0.006098   0.000014
     8  C   -0.033424   4.865702   0.385174  -0.035385  -0.032480  -0.041169
     9  C   -0.006167   0.385174   5.050716   0.369676   0.367259   0.378766
    10  H   -0.000500  -0.035385   0.369676   0.619832  -0.037913  -0.038618
    11  H    0.006098  -0.032480   0.367259  -0.037913   0.616546  -0.038873
    12  C    0.000014  -0.041169   0.378766  -0.038618  -0.038873   5.144682
    13  H   -0.000000   0.005939  -0.031866  -0.004950  -0.002643   0.340979
    14  H   -0.000016  -0.005481  -0.035326   0.005918  -0.005625   0.406557
    15  H    0.000001  -0.010076  -0.035350  -0.003812   0.005621   0.386409
    16  C    0.006726   0.380432  -0.053329  -0.007726   0.006120  -0.009071
    17  H   -0.000095  -0.046039  -0.000556   0.006072  -0.000153  -0.000660
    18  H   -0.000198  -0.030893  -0.007634  -0.000460  -0.000058   0.000868
    19  C   -0.008252   0.382425  -0.046246   0.006746  -0.006816  -0.008382
    20  H    0.005882  -0.043949  -0.008809  -0.000096   0.004694  -0.000892
    21  H   -0.000254  -0.037991   0.005608  -0.000228  -0.000087  -0.000329
    22  N   -0.000424  -0.057326   0.004280   0.000013  -0.000120   0.000262
    23  N    0.000023  -0.053482  -0.010680  -0.000564  -0.000184  -0.071433
    24  C   -0.000023   0.003480   0.001106   0.000012   0.000081  -0.012195
    25  H    0.000002  -0.000326  -0.000115   0.000000  -0.000019   0.000648
    26  H    0.000000  -0.000088  -0.000031  -0.000000   0.000040   0.000881
    27  H   -0.000012  -0.000206   0.000883  -0.000035   0.001395  -0.002150
    28  C   -0.000004   0.001314   0.000522   0.000008  -0.000021   0.002383
    29  H    0.000004  -0.002037  -0.000095  -0.000001   0.000002  -0.000196
    30  H   -0.000001   0.001174   0.000139   0.000002  -0.000000   0.000322
    31  C   -0.000000  -0.000181  -0.000002  -0.000000  -0.000001  -0.000019
    32  H   -0.000000  -0.000010   0.000001  -0.000000   0.000000  -0.000004
    33  H    0.000000   0.000003   0.000000   0.000000  -0.000000   0.000003
    34  H    0.000000  -0.000015  -0.000007  -0.000000   0.000000  -0.000197
    35  C    0.000006   0.004429  -0.000137  -0.000004   0.000003   0.000003
    36  H   -0.000000   0.000021  -0.000000  -0.000000  -0.000000   0.000002
    37  H   -0.000000  -0.000610   0.000012   0.000005   0.000000  -0.000074
    38  C    0.000000  -0.000116   0.000005   0.000000  -0.000000  -0.000001
    39  H    0.000000   0.000005  -0.000000  -0.000000   0.000000   0.000000
    40  H   -0.000000  -0.000018   0.000000   0.000000  -0.000000  -0.000000
    41  H   -0.000000  -0.000008  -0.000000  -0.000000  -0.000000   0.000000
    42  C   -0.000020  -0.007839  -0.000307  -0.000008  -0.000004  -0.000005
    43  H   -0.000271   0.000432  -0.000003  -0.000000  -0.000000   0.000000
    44  H   -0.002142  -0.003659  -0.000328   0.000042  -0.000003  -0.000006
    45  H    0.000021  -0.000322   0.000036   0.000003  -0.000000   0.000000
              13         14         15         16         17         18
     1  C    0.000003   0.000002  -0.000001  -0.015310   0.001287  -0.000549
     2  H    0.000000  -0.000004   0.000000   0.000922  -0.000092   0.000059
     3  H   -0.000000   0.000000   0.000000   0.000081   0.000117   0.000018
     4  H    0.000000   0.000000  -0.000007   0.002442  -0.002770  -0.000951
     5  C   -0.000122   0.000076   0.000048  -0.041586  -0.012941   0.006553
     6  H   -0.000008   0.000007   0.000008  -0.007323   0.004478  -0.000109
     7  H   -0.000000  -0.000016   0.000001   0.006726  -0.000095  -0.000198
     8  C    0.005939  -0.005481  -0.010076   0.380432  -0.046039  -0.030893
     9  C   -0.031866  -0.035326  -0.035350  -0.053329  -0.000556  -0.007634
    10  H   -0.004950   0.005918  -0.003812  -0.007726   0.006072  -0.000460
    11  H   -0.002643  -0.005625   0.005621   0.006120  -0.000153  -0.000058
    12  C    0.340979   0.406557   0.386409  -0.009071  -0.000660   0.000868
    13  H    0.655431  -0.032702  -0.035590   0.000169  -0.000040   0.000012
    14  H   -0.032702   0.528257  -0.028810  -0.001293   0.000133   0.000001
    15  H   -0.035590  -0.028810   0.586569   0.000864   0.000968   0.004375
    16  C    0.000169  -0.001293   0.000864   5.077457   0.354212   0.370705
    17  H   -0.000040   0.000133   0.000968   0.354212   0.649113  -0.040242
    18  H    0.000012   0.000001   0.004375   0.370705  -0.040242   0.563856
    19  C   -0.000006  -0.000634   0.000570  -0.060542   0.007343  -0.010254
    20  H    0.000099  -0.001248  -0.000015   0.006794  -0.000126   0.000234
    21  H    0.000022  -0.000102  -0.000047  -0.009370   0.000386   0.000137
    22  N   -0.000003  -0.000009  -0.000003   0.276185  -0.049484  -0.033788
    23  N    0.005150  -0.036594  -0.005260  -0.008459  -0.000103   0.013340
    24  C   -0.000206   0.003390   0.000415   0.000485  -0.000011  -0.000331
    25  H    0.000033   0.001385  -0.000067  -0.000003   0.000000   0.000036
    26  H   -0.000475   0.002760   0.000276   0.000034  -0.000001  -0.000024
    27  H    0.000037  -0.004128   0.000178   0.000015   0.000000  -0.000018
    28  C   -0.000080   0.002232  -0.000125  -0.000894   0.000188  -0.001242
    29  H    0.000007  -0.000107  -0.000022   0.000420  -0.000007   0.000532
    30  H   -0.000029   0.000236   0.000214   0.000192  -0.000040  -0.001210
    31  C    0.000003  -0.000435   0.000002  -0.000063   0.000001   0.000057
    32  H   -0.000000  -0.000025   0.000001  -0.000000   0.000000  -0.000001
    33  H   -0.000000   0.000014  -0.000001   0.000002   0.000000  -0.000004
    34  H    0.000016  -0.000266   0.000004  -0.000002  -0.000000   0.000037
    35  C   -0.000000  -0.000002  -0.000005  -0.054558   0.000797  -0.011533
    36  H    0.000000  -0.000000  -0.000004   0.005982  -0.000584   0.000789
    37  H   -0.000000   0.000002   0.000094  -0.013638   0.003837   0.006787
    38  C    0.000000   0.000000   0.000000   0.000717   0.000285   0.000136
    39  H   -0.000000   0.000000  -0.000000  -0.000094  -0.000053  -0.000045
    40  H   -0.000000  -0.000000   0.000000   0.000142   0.000097  -0.000001
    41  H   -0.000000   0.000000  -0.000000   0.001660  -0.000340   0.000111
    42  C    0.000000   0.000000  -0.000001  -0.036823  -0.015677   0.006024
    43  H   -0.000000  -0.000000   0.000000   0.007014  -0.000074  -0.000191
    44  H   -0.000000  -0.000000   0.000008  -0.010688   0.008499   0.000720
    45  H    0.000000   0.000000  -0.000000  -0.003935   0.007750  -0.000408
              19         20         21         22         23         24
     1  C   -0.010400  -0.000868   0.000901  -0.009036   0.000218   0.000005
     2  H    0.002771   0.000751   0.004976  -0.005149   0.000028  -0.000001
     3  H    0.000315  -0.000021   0.000006   0.004344  -0.000003  -0.000000
     4  H   -0.002334   0.000232   0.000493  -0.117026   0.000007  -0.000001
     5  C   -0.053802  -0.002018  -0.006160  -0.008664   0.004663  -0.000269
     6  H    0.006092  -0.000150  -0.000117  -0.000044  -0.000133   0.000004
     7  H   -0.008252   0.005882  -0.000254  -0.000424   0.000023  -0.000023
     8  C    0.382425  -0.043949  -0.037991  -0.057326  -0.053482   0.003480
     9  C   -0.046246  -0.008809   0.005608   0.004280  -0.010680   0.001106
    10  H    0.006746  -0.000096  -0.000228   0.000013  -0.000564   0.000012
    11  H   -0.006816   0.004694  -0.000087  -0.000120  -0.000184   0.000081
    12  C   -0.008382  -0.000892  -0.000329   0.000262  -0.071433  -0.012195
    13  H   -0.000006   0.000099   0.000022  -0.000003   0.005150  -0.000206
    14  H   -0.000634  -0.001248  -0.000102  -0.000009  -0.036594   0.003390
    15  H    0.000570  -0.000015  -0.000047  -0.000003  -0.005260   0.000415
    16  C   -0.060542   0.006794  -0.009370   0.276185  -0.008459   0.000485
    17  H    0.007343  -0.000126   0.000386  -0.049484  -0.000103  -0.000011
    18  H   -0.010254   0.000234   0.000137  -0.033788   0.013340  -0.000331
    19  C    5.072119   0.359282   0.365456  -0.008020   0.261904  -0.046305
    20  H    0.359282   0.625161  -0.031520   0.000325  -0.038250  -0.015453
    21  H    0.365456  -0.031520   0.564338   0.014039  -0.036777   0.003206
    22  N   -0.008020   0.000325   0.014039   7.002680  -0.001340  -0.000029
    23  N    0.261904  -0.038250  -0.036777  -0.001340   7.112607   0.273191
    24  C   -0.046305  -0.015453   0.003206  -0.000029   0.273191   5.071489
    25  H   -0.005200   0.004669   0.000974  -0.000002  -0.039658   0.369568
    26  H    0.007213   0.000216  -0.000412   0.000001  -0.051659   0.387104
    27  H   -0.007820   0.003910   0.000171  -0.000002  -0.036984   0.379486
    28  C   -0.050721   0.003478  -0.014648   0.003688   0.320111  -0.056021
    29  H   -0.017001   0.003305   0.016166  -0.000322  -0.050002  -0.003263
    30  H    0.003685  -0.000536  -0.000608  -0.002181  -0.058150   0.007447
    31  C    0.005223  -0.000426   0.000950   0.000093  -0.050968  -0.022107
    32  H   -0.000057  -0.000050   0.000029  -0.000001  -0.003814  -0.003144
    33  H   -0.000121   0.000007  -0.000048  -0.000000   0.003839   0.001460
    34  H   -0.000038   0.000052   0.000042  -0.000001   0.000383  -0.005268
    35  C   -0.000150   0.000014  -0.000664   0.320907   0.000260  -0.000003
    36  H    0.000011  -0.000006  -0.000135  -0.054728   0.000052   0.000001
    37  H    0.000230  -0.000000   0.000061  -0.041747  -0.000306   0.000000
    38  C   -0.000009   0.000000   0.000034  -0.055488  -0.000005   0.000000
    39  H    0.000000  -0.000000  -0.000000   0.004455  -0.000000   0.000000
    40  H    0.000001  -0.000000  -0.000000  -0.006418   0.000000  -0.000000
    41  H   -0.000000  -0.000000  -0.000001   0.001060   0.000000  -0.000000
    42  C    0.000293  -0.000053  -0.000984   0.353357   0.000010   0.000001
    43  H    0.000165  -0.000010  -0.000089  -0.035081   0.000003  -0.000000
    44  H    0.000601  -0.000010  -0.000048  -0.017728  -0.000009   0.000000
    45  H   -0.000023   0.000001   0.000069  -0.045916  -0.000002  -0.000000
              25         26         27         28         29         30
     1  C   -0.000002   0.000000   0.000000   0.000046  -0.000189   0.000006
     2  H    0.000005  -0.000000   0.000002  -0.000116   0.000237  -0.000020
     3  H    0.000000  -0.000000  -0.000000   0.000000   0.000002  -0.000000
     4  H    0.000000   0.000000  -0.000000  -0.000016   0.000013  -0.000006
     5  C    0.000018   0.000002  -0.000075  -0.000162   0.000109  -0.000050
     6  H   -0.000000  -0.000000   0.000002   0.000005  -0.000001   0.000000
     7  H    0.000002   0.000000  -0.000012  -0.000004   0.000004  -0.000001
     8  C   -0.000326  -0.000088  -0.000206   0.001314  -0.002037   0.001174
     9  C   -0.000115  -0.000031   0.000883   0.000522  -0.000095   0.000139
    10  H    0.000000  -0.000000  -0.000035   0.000008  -0.000001   0.000002
    11  H   -0.000019   0.000040   0.001395  -0.000021   0.000002  -0.000000
    12  C    0.000648   0.000881  -0.002150   0.002383  -0.000196   0.000322
    13  H    0.000033  -0.000475   0.000037  -0.000080   0.000007  -0.000029
    14  H    0.001385   0.002760  -0.004128   0.002232  -0.000107   0.000236
    15  H   -0.000067   0.000276   0.000178  -0.000125  -0.000022   0.000214
    16  C   -0.000003   0.000034   0.000015  -0.000894   0.000420   0.000192
    17  H    0.000000  -0.000001   0.000000   0.000188  -0.000007  -0.000040
    18  H    0.000036  -0.000024  -0.000018  -0.001242   0.000532  -0.001210
    19  C   -0.005200   0.007213  -0.007820  -0.050721  -0.017001   0.003685
    20  H    0.004669   0.000216   0.003910   0.003478   0.003305  -0.000536
    21  H    0.000974  -0.000412   0.000171  -0.014648   0.016166  -0.000608
    22  N   -0.000002   0.000001  -0.000002   0.003688  -0.000322  -0.002181
    23  N   -0.039658  -0.051659  -0.036984   0.320111  -0.050002  -0.058150
    24  C    0.369568   0.387104   0.379486  -0.056021  -0.003263   0.007447
    25  H    0.607131  -0.043701  -0.030314  -0.011281   0.007366  -0.000776
    26  H   -0.043701   0.572189  -0.031978  -0.003199  -0.000902   0.000411
    27  H   -0.030314  -0.031978   0.553418   0.006897  -0.000251  -0.000202
    28  C   -0.011281  -0.003199   0.006897   4.893890   0.356717   0.389945
    29  H    0.007366  -0.000902  -0.000251   0.356717   0.655483  -0.059577
    30  H   -0.000776   0.000411  -0.000202   0.389945  -0.059577   0.608069
    31  C   -0.008104   0.000378   0.001422   0.369393  -0.033217  -0.038512
    32  H   -0.001105  -0.001368   0.000311  -0.032423  -0.007958   0.005107
    33  H    0.000281   0.000367  -0.000054  -0.026845  -0.000784  -0.002258
    34  H    0.001469  -0.003223   0.000162  -0.034461   0.006638  -0.005927
    35  C   -0.000000   0.000000   0.000000  -0.001631   0.000116   0.002752
    36  H    0.000000  -0.000000  -0.000000  -0.000746   0.000603   0.001542
    37  H   -0.000001   0.000001  -0.000000  -0.000669  -0.000119   0.002300
    38  C   -0.000000   0.000000  -0.000000   0.000138  -0.000004  -0.000025
    39  H    0.000000  -0.000000   0.000000  -0.000001  -0.000000   0.000008
    40  H    0.000000  -0.000000   0.000000  -0.000003   0.000001   0.000001
    41  H   -0.000000  -0.000000   0.000000  -0.000002   0.000000   0.000003
    42  C   -0.000000   0.000000   0.000000  -0.000091  -0.000022   0.000093
    43  H    0.000000  -0.000000   0.000000  -0.000005   0.000003   0.000000
    44  H   -0.000000   0.000000   0.000000   0.000008  -0.000002  -0.000001
    45  H   -0.000000   0.000000  -0.000000   0.000005  -0.000000  -0.000008
              31         32         33         34         35         36
     1  C    0.000000  -0.000000   0.000000  -0.000000  -0.001122  -0.000045
     2  H   -0.000001  -0.000000   0.000000   0.000000   0.000383   0.000030
     3  H    0.000000  -0.000000  -0.000000   0.000000  -0.000078  -0.000007
     4  H   -0.000000   0.000000   0.000000   0.000000   0.004499   0.000119
     5  C    0.000002  -0.000000  -0.000000   0.000000   0.000338   0.000039
     6  H   -0.000000  -0.000000   0.000000  -0.000000  -0.000018   0.000000
     7  H   -0.000000  -0.000000   0.000000   0.000000   0.000006  -0.000000
     8  C   -0.000181  -0.000010   0.000003  -0.000015   0.004429   0.000021
     9  C   -0.000002   0.000001   0.000000  -0.000007  -0.000137  -0.000000
    10  H   -0.000000  -0.000000   0.000000  -0.000000  -0.000004  -0.000000
    11  H   -0.000001   0.000000  -0.000000   0.000000   0.000003  -0.000000
    12  C   -0.000019  -0.000004   0.000003  -0.000197   0.000003   0.000002
    13  H    0.000003  -0.000000  -0.000000   0.000016  -0.000000   0.000000
    14  H   -0.000435  -0.000025   0.000014  -0.000266  -0.000002  -0.000000
    15  H    0.000002   0.000001  -0.000001   0.000004  -0.000005  -0.000004
    16  C   -0.000063  -0.000000   0.000002  -0.000002  -0.054558   0.005982
    17  H    0.000001   0.000000   0.000000  -0.000000   0.000797  -0.000584
    18  H    0.000057  -0.000001  -0.000004   0.000037  -0.011533   0.000789
    19  C    0.005223  -0.000057  -0.000121  -0.000038  -0.000150   0.000011
[...]
 ,0.00200084,-0.00011219,0.00168159,-0.00084299,-0.00018705,0.00000156,
 -0.00022004,-0.00001140,0.00003151,-0.00006482,0.00006617,-0.00007919,
 0.00010852,0.00012087,-0.00000675,-0.09043935,0.03081370,-0.04023757,-
 0.00002750,-0.00006755,0.00017883,-0.00004613,0.00001695,-0.00004994,0
 .00001164,-0.00000040,-0.00000289,-0.00000081,-0.00000051,0.00001254,0
 .00002229,-0.00000873,-0.00000603,-0.00004652,0.00010580,-0.00002330,0
 .00004082,-0.00002361,0.00001256,-0.00001852,-0.00006914,0.00004888,0.
 00001733,-0.00001241,-0.00001473,0.00001627,-0.00001245,0.00002528,-0.
 00000820,-0.00000077,-0.00001332,-0.00000841,0.00003082,-0.00001667,0.
 00428978,-0.00588439,0.02901189,-0.00000407,-0.00027109,0.00088299,-0.
 00311759,0.00117956,0.00425980,0.00016907,0.00083810,0.00330539,-0.000
 64887,-0.00051167,-0.00013829,-0.00045072,0.00022075,0.00018417,0.0000
 5980,-0.00034657,0.00008099,0.57707976,-0.00024096,-0.00058971,-0.0007
 3344,-0.00016522,0.00017892,0.00001702,0.00008235,0.00001589,0.0000540
 0,-0.00136906,0.00012957,-0.00019932,0.00055829,-0.00053531,-0.0007181
 6,0.00060912,0.00021879,0.00063960,0.00014701,0.00003863,0.00031813,-0
 .00120033,-0.00033974,0.00036011,0.00005264,0.00008213,0.00008363,0.00
 007168,-0.00000827,-0.00004996,0.00004489,-0.00006709,-0.00003726,0.00
 009250,-0.00003567,-0.00004771,0.00005830,-0.00003895,-0.00001890,-0.0
 0005514,0.00002920,-0.00006842,0.00001265,0.00000365,0.00006852,0.0091
 4289,-0.01717216,0.03466824,0.00169092,0.00153747,0.00395557,0.0029032
 8,-0.00557620,0.00182995,-0.00028708,-0.00035572,-0.00011204,-0.000030
 07,0.00015976,-0.00001586,0.00021585,0.00029739,0.00014733,0.01636981,
 -0.07878070,-0.00214532,0.00006733,0.00013445,0.00018481,0.00001294,0.
 00007170,-0.00002263,0.00001957,-0.00000803,0.00001259,-0.00000923,-0.
 00000057,-0.00000662,-0.00000863,0.00000419,-0.00000686,0.00016803,-0.
 00016895,0.00003448,-0.00005853,0.00004172,-0.00000944,0.00001724,0.00
 009386,0.00003559,-0.00003650,0.00003188,0.00000647,-0.00000552,0.0000
 0882,-0.00002294,0.00000900,0.00000367,0.00001459,0.00000875,-0.000030
 20,0.00000184,-0.00699495,0.00137287,-0.00405645,0.00039222,-0.0000609
 0,-0.00220682,0.00259306,-0.00055970,-0.00243374,0.00172512,-0.0000899
 3,0.00151102,-0.00008238,-0.00002209,-0.00042017,-0.00012192,0.0008574
 4,-0.00034448,0.00001184,-0.00004764,0.00019800,-0.02748421,0.58144682
 ,0.00006719,0.00058137,-0.00106409,-0.00018780,0.00007323,-0.00008808,
 0.00073218,0.00010655,-0.00026165,-0.00059768,-0.00066411,0.00097878,-
 0.00073786,0.00054332,0.00189034,-0.00040937,-0.00062460,-0.00092685,-
 0.00009885,-0.00011216,-0.00075428,-0.00035000,-0.00108799,0.00023298,
 0.00073075,0.00062312,0.00033864,0.00000201,-0.00018213,-0.00016053,0.
 00031877,-0.00049226,-0.00000920,0.00006000,-0.00016181,-0.00014678,0.
 00012003,-0.00015834,0.00006900,-0.00004962,0.00005234,-0.00006095,0.0
 0010944,0.00016930,0.00009217,-0.01142604,0.00869674,-0.00901419,0.002
 45956,-0.00454225,0.00091298,-0.00016667,-0.00242518,0.00113068,-0.000
 07665,0.00018325,-0.00075149,0.00032916,0.00008951,0.00030641,-0.00044
 619,-0.00028502,-0.00031189,-0.01313978,0.02593042,-0.20344927,0.00035
 114,-0.00018123,0.00043676,-0.00033673,0.00018279,-0.00010716,0.000143
 20,0.00003185,0.00005812,0.00003163,-0.00004187,0.00008761,0.00000474,
 0.00000191,-0.00003432,-0.00004158,-0.00016218,-0.00032599,0.00007529,
 0.00008111,0.00008265,0.00007295,-0.00009428,-0.00002026,0.00003027,-0
 .00000251,0.00001645,0.00001093,-0.00003284,0.00004998,-0.00002693,0.0
 0001922,0.00003751,0.00001516,0.00002092,-0.00002659,0.00031151,-0.003
 78031,-0.03768488,-0.00188211,0.00141656,0.00104298,0.00266883,-0.0004
 4199,-0.00061514,-0.00065492,0.00107980,0.00380821,-0.00237639,-0.0009
 1669,0.00002324,-0.00010830,0.00068636,-0.00124674,0.00028884,-0.00000
 631,-0.00005454,-0.04869927,0.00743523,0.49615794,-0.00014906,0.000219
 13,0.00014724,0.00002881,-0.00008509,-0.00001031,-0.00003523,-0.000022
 22,0.00004024,-0.00000866,0.00010517,-0.00016094,0.00003072,0.00026708
 ,0.00024402,-0.00011374,-0.00020018,-0.00029712,-0.00013190,-0.0000795
 7,-0.00014667,0.00019619,-0.00000888,0.00026557,-0.00006581,-0.0000687
 9,-0.00002583,-0.00000114,-0.00000351,0.00000693,-0.00004485,0.0000470
 6,-0.00000374,-0.00001427,0.00001632,0.00001907,-0.00001697,0.00002358
 ,-0.00000463,0.00001601,-0.00000619,0.00000847,-0.00001376,-0.00001915
 ,-0.00001518,0.00205805,-0.00107943,-0.00185448,-0.00002808,0.00011155
 ,0.00026926,-0.00027543,0.00061320,-0.00025144,0.00006820,0.00010095,0
 .00007643,-0.00003680,-0.00000232,-0.00002348,0.00003004,0.00000702,-0
 .00000064,-0.00559832,0.00929870,-0.00268247,-0.00005935,-0.00003838,-
 0.00011183,0.00004425,-0.00003497,0.00002004,-0.00002759,-0.00000589,-
 0.00001249,-0.00000229,0.00000450,-0.00000872,0.00000284,-0.00000360,0
 .00000511,-0.00001295,0.00006861,0.00004444,-0.00001893,-0.00002157,-0
 .00002011,0.00000539,0.00001347,0.00000079,0.00000555,-0.00000389,-0.0
 0000172,-0.00000339,0.00000158,-0.00000280,0.00000523,-0.00000293,-0.0
 0000901,-0.00000725,-0.00000744,0.00000529,-0.00007294,-0.00069106,0.0
 0151492,0.00044134,-0.00020375,-0.00012292,-0.00003622,-0.00030154,0.0
 0000101,0.00022371,0.00001857,-0.00000389,0.00005627,0.00005678,-0.000
 01823,-0.00004856,-0.00004634,-0.00007365,-0.00004347,0.00003031,-0.00
 006242,-0.08989098,0.09064572,-0.01018842,0.09294193,0.00010625,0.0000
 4032,-0.00001082,0.00001043,0.00002760,0.00000790,0.00005375,0.0000149
 1,-0.00003417,-0.00000488,-0.00009054,0.00008709,-0.00015213,-0.000043
 66,-0.00002523,0.00001144,0.00001441,0.00006270,0.00006780,0.00004022,
 -0.00003067,-0.00025117,-0.00007687,0.00022826,0.00007424,0.00007209,0
 .00001094,-0.00001521,0.00000017,0.00000875,0.00005914,-0.00005208,0.0
 0001141,-0.00000580,-0.00000025,-0.00002479,0.00001876,-0.00002609,0.0
 0000740,-0.00000514,0.00000329,0.00000143,0.00002173,0.00003531,-0.000
 00080,-0.00092155,0.00121424,0.00099536,-0.00004129,0.00061464,0.00006
 164,0.00030917,-0.00016749,0.00040896,0.00009661,-0.00007369,-0.000106
 84,0.00006128,0.00002099,0.00006927,-0.00002984,-0.00001480,-0.0000115
 9,0.00346298,-0.00351178,0.00318002,0.00005186,0.00003553,0.00010499,-
 0.00004868,0.00003561,-0.00001735,0.00002659,0.00000648,0.00001208,0.0
 0000265,-0.00000895,0.00001219,-0.00000704,0.00000714,-0.00000542,0.00
 003300,-0.00008995,-0.00005127,0.00001097,0.00002709,0.00001792,-0.000
 00145,-0.00000484,-0.00000980,-0.00000699,0.00000628,0.00000371,0.0000
 0040,-0.00000172,0.00000106,-0.00000526,0.00000585,0.00001496,0.000008
 23,0.00000069,-0.00000456,0.00067247,0.00027749,-0.00128413,-0.0003631
 7,0.00046167,0.00043301,-0.00022062,0.00053762,-0.00005550,-0.00022495
 ,-0.00026732,0.00024594,-0.00006754,0.00004446,-0.00002368,-0.00014284
 ,-0.00026462,-0.00005090,-0.00002866,0.00013496,-0.00016457,0.09197869
 ,-0.26883780,0.02322310,-0.10325007,0.28977103,-0.00003545,-0.00005091
 ,0.00008063,0.00000587,0.00003692,-0.00000401,-0.00001012,-0.00004200,
 -0.00000539,-0.00002166,0.00006420,-0.00002550,0.00000690,-0.00020779,
 -0.00035793,0.00005585,0.00011116,0.00023762,0.00000040,0.00000572,0.0
 0015151,0.00049843,0.00046087,-0.00012948,-0.00016017,-0.00010624,-0.0
 0006731,-0.00001963,0.00003728,0.00003268,-0.00008229,0.00008992,0.000
 01939,-0.00001853,0.00001569,0.00004404,-0.00004003,0.00002689,-0.0000
 0279,0.00001838,-0.00001681,0.00002750,-0.00002851,-0.00004330,-0.0000
 2709,0.00085565,0.00009716,-0.00644417,0.00007717,0.00008831,0.0001932
 0,-0.00100256,0.00183423,-0.00033983,0.00001399,0.00007117,0.00009863,
 -0.00005232,-0.00002000,-0.00005164,0.00003257,0.00000720,0.00001161,-
 0.01725858,0.03247950,-0.00814796,-0.00007966,-0.00004241,-0.00008017,
 0.00003892,-0.00004168,0.00001604,-0.00002688,-0.00000355,-0.00001328,
 -0.00000129,0.00000568,-0.00000808,0.00000583,-0.00000370,0.00000495,-
 0.00003804,0.00007909,0.00004608,-0.00000711,-0.00002538,-0.00001847,0
 .00000042,0.00000363,0.00000804,0.00000986,-0.00000417,-0.00000178,-0.
 00000026,-0.00000091,0.00000124,0.00000220,-0.00000502,-0.00001313,-0.
 00000883,0.00000023,0.00000482,-0.00127028,0.00250476,0.00101288,0.000
 39353,-0.00080499,-0.00020566,-0.00021452,-0.00009950,0.00037844,0.000
 34893,-0.00028809,-0.00022691,0.00013389,0.00007096,-0.00000292,0.0000
 2667,0.00005384,-0.00001941,-0.00014152,-0.00011116,-0.00000308,-0.006
 70592,0.01612035,-0.05270648,0.01449800,-0.02716276,0.06185690,-0.0007
 5279,-0.00026720,-0.00059412,-0.00004788,0.00012342,-0.00004153,0.0000
 1281,-0.00002329,-0.00006580,-0.00059743,-0.00033122,-0.00044657,-0.00
 156546,0.00060172,-0.00014819,-0.00114131,0.00061427,-0.00066408,-0.00
 019162,-0.00014651,-0.00013458,0.00025441,-0.00031061,0.00003569,0.000
 13901,0.00005600,0.00007890,0.00001008,-0.00002754,-0.00003200,0.00001
 568,-0.00007270,-0.00001080,-0.00000887,-0.00001152,-0.00001851,0.0000
 0284,-0.00001064,0.00000568,-0.00000334,0.00000638,-0.00001015,-0.0000
 0062,-0.00000185,0.00001795,0.00062224,0.00158787,0.00040504,-0.000135
 41,-0.00025585,-0.00051068,0.00000566,-0.00019614,0.00004583,-0.000081
 21,-0.00002876,-0.00003963,0.00002196,0.00001895,0.00002153,-0.0000270
 8,-0.00001913,-0.00002279,0.01121431,-0.00176314,-0.00551891,0.0000364
 3,-0.00001560,0.00001559,-0.00002436,0.00000895,-0.00000572,0.00001028
 ,0.00000289,0.00000443,0.00000279,-0.00000154,0.00000285,0.00000235,-0
 .00000348,-0.00000240,-0.00002025,0.00000845,-0.00001252,0.00000825,0.
 00000445,0.00000534,0.00001321,-0.00001352,0.00000867,0.00000317,-0.00
 000639,-0.00000034,0.00000268,-0.00000220,0.00000528,-0.00000095,-0.00
 000017,-0.00000101,0.00000125,0.00000570,-0.00000112,0.00035437,0.0001
 2056,-0.00201986,-0.00000845,-0.00019261,0.00001838,0.00029262,-0.0001
 9938,-0.00032613,-0.00016890,0.00001011,-0.00039145,0.00013499,0.00005
 235,0.00017170,0.00029309,-0.00002555,0.00026980,0.00000138,-0.0000174
 3,0.00003462,-0.23681405,0.01426084,0.12586819,-0.00898069,-0.00018030
 ,0.00524713,0.25535069,-0.00046382,0.00032148,0.00009874,0.00016597,-0
 .00021999,0.00001944,-0.00011583,-0.00003647,0.00001120,-0.00020111,-0
 .00031849,-0.00061370,0.00067861,0.00050282,0.00059453,0.00072230,-0.0
 0034507,-0.00010213,-0.00003197,-0.00014260,-0.00011385,-0.00003110,0.
 00014011,-0.00003730,-0.00011191,-0.00004194,0.00004383,0.00001723,-0.
 00003186,-0.00001911,-0.00002339,0.00005010,-0.00002166,-0.00000582,-0
 .00002277,-0.00000348,0.00000192,0.00001147,0.00000003,0.00000557,0.00
 000607,-0.00000901,-0.00000171,-0.00000115,0.00000639,-0.00061805,-0.0
 0005436,0.00009066,-0.00035328,-0.00034541,0.00024970,-0.00002730,0.00
 000569,-0.00028370,0.00004378,0.00012670,0.00006323,-0.00003531,-0.000
 01536,-0.00001733,0.00001593,-0.00003305,-0.00002872,-0.00286593,0.000
 94475,0.00437194,-0.00001210,-0.00004313,-0.00006517,0.00001753,-0.000
 00884,0.00001231,-0.00001119,-0.00000446,-0.00000633,-0.00000067,0.000
 00142,-0.00000363,0.00000396,-0.00000385,0.00000318,-0.00000930,0.0000
 3326,0.00001283,-0.00000755,-0.00001118,-0.00001109,0.00000062,0.00000
 351,-0.00000364,0.00000073,-0.00000614,-0.00000303,-0.00000003,0.00000
 124,-0.00000027,0.00000248,-0.00000111,-0.00000461,-0.00000295,-0.0000
 0075,0.00000185,0.00028922,-0.00064611,0.00019721,-0.00018980,0.000577
 33,-0.00012002,-0.00005914,0.00038643,-0.00008861,-0.00027278,0.000260
 39,-0.00010538,0.00007772,0.00001924,0.00008034,0.00014529,-0.00016105
 ,0.00013753,0.00003148,0.00001600,-0.00004455,0.01390163,-0.05161736,-
 0.00951237,0.02511174,0.00020250,-0.01720094,-0.01477641,0.04917857,-0
 .00059584,-0.00005181,0.00032805,0.00038318,-0.00004643,0.00001440,0.0
 0004828,0.00000287,-0.00001408,-0.00026264,-0.00068353,-0.00048814,-0.
 00004078,0.00006237,-0.00055117,-0.00008415,0.00051253,0.00062981,0.00
 023382,-0.00005894,0.00034286,-0.00014189,0.00029564,-0.00036183,-0.00
 010722,-0.00002864,0.00005680,-0.00000313,0.00004055,0.00002239,-0.000
 03202,0.00002037,0.00000531,0.00004027,-0.00000714,0.00000528,-0.00002
 588,-0.00001604,0.00000886,0.00000198,-0.00000867,0.00001916,-0.000028
 81,-0.00001645,-0.00001655,0.00117645,-0.00130747,0.00064214,-0.000162
 32,0.00047788,0.00017560,0.00001785,0.00012461,0.00013959,0.00006025,-
 0.00007293,-0.00006744,-0.00006797,-0.00000408,-0.00000833,0.00006636,
 0.00004343,0.00000741,0.02685108,-0.00549129,-0.02727739,-0.00010370,0
 .00003362,0.00011100,0.00000615,0.00000624,0.00002327,-0.00000618,-0.0
 0000148,-0.00000651,0.00000124,-0.00000791,0.00000703,-0.00001031,0.00
 001632,-0.00000361,0.00010676,-0.00012876,0.00003640,-0.00003559,0.000
 02446,-0.00001065,0.00000298,0.00006347,-0.00001779,-0.00001649,0.0000
 3247,0.00001381,-0.00000865,0.00000574,-0.00001750,-0.00000060,0.00000
 019,0.00001711,0.00000005,-0.00002573,0.00000815,-0.00312553,0.0038868
 4,-0.00464419,-0.00014381,-0.00014574,0.00033400,0.00133433,-0.0002408
 4,-0.00134535,-0.00037665,-0.00041401,-0.00051920,0.00036768,0.0001109
 6,0.00018985,0.00022141,0.00000989,0.00036449,0.00000868,0.00007699,0.
 00000530,0.11741310,-0.00741741,-0.12757640,-0.00346402,-0.00091726,0.
 00290939,-0.13193089,0.01007629,0.14945846,0.00025925,-0.00008458,-0.0
 0011630,-0.00014578,0.00008643,-0.00003068,-0.00001454,0.00001998,0.00
 000709,0.00005116,0.00032857,0.00002361,-0.00005840,-0.00013669,-0.000
 04857,0.00000720,-0.00010238,-0.00005368,-0.00013653,0.00003898,-0.000
 04078,-0.00002467,0.00032334,0.00035789,-0.00009630,-0.00009191,-0.000
 10758,-0.00002866,0.00003401,0.00004706,-0.00002167,0.00007070,0.00002
 505,-0.00006629,0.00002582,0.00001145,0.00000183,0.00003221,-0.0000123
 3,0.00001639,-0.00001222,0.00001482,0.00002693,0.00000148,-0.00001899,
 0.00120752,-0.00320451,-0.00017460,-0.00028969,0.00126517,0.00052753,-
 0.00004224,0.00026419,0.00007941,0.00010538,-0.00008904,0.00007819,-0.
 00000536,0.00006207,0.00000103,0.00008742,0.00011709,0.00010075,-0.004
 32423,-0.00174849,-0.01416468,-0.00004734,0.00006338,-0.00009249,0.000
 06470,-0.00003470,0.00001205,-0.00002167,-0.00000059,-0.00000660,-0.00
 000831,0.00000934,-0.00002344,-0.00000885,0.00000085,0.00000838,0.0000
 3011,-0.00000763,0.00006159,-0.00001495,-0.00000262,-0.00001395,-0.000
 01913,0.00002870,0.00000433,-0.00001529,-0.00000254,-0.00000447,-0.000
 00240,0.00000939,-0.00001458,0.00000679,-0.00000128,-0.00000433,0.0000
 0340,-0.00000363,0.00000449,-0.00055413,0.00166064,0.00178675,0.000205
 32,-0.00013004,-0.00010377,0.00015859,-0.00006073,-0.00023673,-0.00023
 722,-0.00035186,-0.00057087,0.00065110,0.00031178,0.00000132,-0.000404
 46,-0.00034635,0.00140061,-0.00008746,0.00006819,-0.00009459,-0.151984
 95,-0.10383412,-0.04280062,0.00958409,0.00883611,0.00495356,-0.0182358
 9,-0.02100526,-0.00756683,0.16442925,0.00016346,-0.00000007,0.00001431
 ,-0.00003129,0.00002427,-0.00001656,-0.00002780,-0.00001283,0.00001439
 ,0.00004980,0.00003325,0.00004203,-0.00006592,-0.00003076,-0.00004524,
 -0.00002610,0.00000610,-0.00001822,-0.00004981,0.00002216,0.00000949,0
 .00002444,-0.00017547,-0.00024746,0.00003544,-0.00009725,-0.00005734,-
 0.00000272,0.00001848,0.00002577,-0.00002473,0.00004034,0.00000320,-0.
 00002682,0.00005161,0.00001908,-0.00001956,0.00003040,-0.00001702,0.00
 000927,-0.00000910,0.00000755,-0.00001699,-0.00001948,-0.00001824,0.00
 153058,0.00341035,0.00127352,-0.00111768,0.00054482,-0.00119376,-0.000
 06688,0.00057608,0.00009640,0.00004540,-0.00001915,0.00015642,-0.00001
 673,-0.00005845,-0.00001353,0.00006206,-0.00001513,0.00003585,0.004661
 52,0.00654826,-0.00368768,-0.00001624,0.00004898,-0.00009293,0.0000492
 0,-0.00003340,0.00002115,-0.00001839,-0.00000288,-0.00000617,-0.000004
 56,0.00000688,-0.00001675,-0.00000259,-0.00000093,0.00000682,-0.000006
 60,0.00001830,0.00004227,-0.00000348,-0.00000954,-0.00000863,-0.000011
 51,0.00000518,0.00000154,-0.00000687,-0.00000681,-0.00000394,-0.000000
 94,0.00000688,-0.00000844,0.00000393,-0.00000272,-0.00000536,0.0000014
 3,0.00000264,0.00000320,-0.00145949,0.00054690,0.00057669,0.00002160,-
 0.00022596,0.00024390,0.00014515,0.00024484,-0.00019794,-0.00063090,-0
 .00008089,-0.00070682,0.00053557,0.00009063,0.00028753,0.00033972,-0.0
 0012682,0.00076332,-0.00015753,-0.00006552,0.00000519,-0.10230263,-0.1
 6181615,-0.04531956,-0.02057431,-0.02012014,-0.00798343,0.00141777,0.0
 0132343,0.00116882,0.11759277,0.16932866,-0.00002580,0.00009005,0.0004
 0862,0.00016336,-0.00006368,0.00000063,-0.00015098,-0.00001216,0.00005
 350,0.00020312,-0.00001100,-0.00036694,0.00009993,0.00002579,-0.000273
 24,-0.00000521,0.00009893,0.00010882,-0.00001466,-0.00001943,0.0001010
 6,-0.00003857,0.00068995,0.00012938,-0.00026845,-0.00013360,-0.0000241
 7,-0.00000562,0.00005221,0.00003386,-0.00007384,0.00013207,0.00001023,
 -0.00003173,0.00000996,0.00001849,-0.00001026,0.00003531,-0.00001496,0
 .00000980,-0.00001497,0.00000635,-0.00000471,-0.00002196,-0.00000911,0
 .00265840,-0.00651264,0.00085098,0.00015400,0.00160996,0.00126083,0.00
 005790,-0.00001688,0.00000795,0.00009180,-0.00016249,0.00015753,-0.000
 09599,0.00009097,-0.00004189,0.00020417,0.00022767,0.00014970,-0.02733
 512,-0.01846083,-0.02942393,-0.00010937,0.00008285,-0.00010018,0.00010
 223,-0.00004213,0.00002061,-0.00003711,-0.00000713,-0.00001552,-0.0000
 1428,0.00001422,-0.00003313,-0.00000623,0.00000068,0.00001010,0.000059
 92,0.00000125,0.00011811,-0.00002931,-0.00000955,-0.00002862,-0.000025
 25,0.00004580,0.00002186,-0.00002603,-0.00000126,-0.00000888,-0.000000
 51,0.00001444,-0.00002085,0.00000998,-0.00000454,-0.00000898,0.0000010
 3,-0.00000397,0.00000684,-0.00467811,0.00021361,0.00277957,0.00033135,
 -0.00019719,-0.00024336,0.00071127,0.00018396,-0.00027701,0.00105132,0
 .00030263,0.00015619,0.00013767,0.00009633,0.00035112,0.00131728,0.000
 19127,-0.00033035,0.00007059,0.00011159,-0.00006466,-0.04434004,-0.046
 60312,-0.07035565,0.00241033,0.00078201,0.00176688,0.01068718,0.012348
 43,0.00705022,0.05679452,0.05484658,0.08606202\\0.00001838,0.00002575,
 0.00000121,0.00000353,-0.00000139,0.00000191,0.00000391,-0.00000458,0.
 00000224,0.00000432,-0.00001871,0.00000476,-0.00000815,-0.00001280,0.0
 0001491,-0.00000071,-0.00000099,-0.00000217,0.00000238,-0.00000117,-0.
 00000274,0.00000144,0.00001002,0.00000019,0.00000039,-0.00001459,0.000
 00546,-0.00000200,0.00000020,-0.00000124,-0.00000157,0.00000116,-0.000
 00247,0.00000134,0.00000394,0.00000181,-0.00000305,-0.00000200,0.00000
 043,-0.00000267,0.00000149,0.00000212,-0.00000333,-0.00000027,-0.00000
 252,-0.00000996,0.00003182,-0.00000463,0.00000288,-0.00000614,-0.00000
 510,-0.00000539,-0.00000436,-0.00000250,0.00001261,0.00002112,-0.00001
 574,-0.00000837,-0.00000831,0.00000391,0.00000039,-0.00000102,0.000002
 97,0.00000936,-0.00002540,0.00000346,-0.00001971,-0.00002906,-0.000008
 56,0.00001941,0.00000168,0.00002115,-0.00000653,-0.00000497,0.00000092
 ,-0.00000534,-0.00000686,0.00000120,-0.00000507,0.00000189,0.00000050,
 0.00000814,0.00002742,0.00002175,-0.00000385,-0.00001041,-0.00000527,-
 0.00000352,-0.00000248,-0.00001091,0.00000685,-0.00000747,-0.00000965,
 -0.00000079,-0.00000155,0.00000167,-0.00000142,0.00000235,-0.00000275,
 -0.00000315,-0.00000013,0.00000076,0.00001673,0.00001657,-0.00000390,0
 .00000302,0.00000162,0.00000033,-0.00000053,0.00000230,-0.00000095,-0.
 00000870,-0.00000082,0.00000203,-0.00000064,0.00000114,-0.00000295,0.0
 0000251,0.00000414,-0.00000200,0.00000348,0.00000077,-0.00000126,-0.00
 001007,0.00002673,-0.00000103,-0.00000299,-0.00000532,0.00000055,-0.00
 000352,-0.00001109,-0.00000657,-0.00000005,-0.00000020,-0.00000134\\\@
 The archive entry for this job was punched.


 ACCORDING TO HEN3RY, LIFE IS MUCH LIKE A SEWER........
 YOU GET OUT OF IT JUST WHAT YOU PUT INTO IT...........
                         TOM LEHRER - (THE 3 IS SILENT)
 Job cpu time:       0 days  2 hours 29 minutes 31.8 seconds.
 Elapsed time:       0 days  0 hours 18 minutes 42.2 seconds.
 File lengths (MBytes):  RWF=    565 Int=      0 D2E=      0 Chk=     20 Scr=      1
 Normal termination of Gaussian 16 at Sun Oct 24 19:42:28 2021.
