 Entering Gaussian System, Link 0=/home/rong/g16/g16
 Input=/home/rong/g16/learning/cyclohexaneNMeCH2CH3.gjf
 Output=/home/rong/g16/learning/cyclohexaneNMeCH2CH3.log
 Initial command:
 /home/rong/g16/l1.exe "/tmp/Gau-222473.inp" -scrdir="/tmp/"
 Entering Link 1 = /home/rong/g16/l1.exe PID=    222476.
  
 Copyright (c) 1988-2019, Gaussian, Inc.  All Rights Reserved.
  
 This is part of the Gaussian(R) 16 program.  It is based on
 the Gaussian(R) 09 system (copyright 2009, Gaussian, Inc.),
 the Gaussian(R) 03 system (copyright 2003, Gaussian, Inc.),
 the Gaussian(R) 98 system (copyright 1998, Gaussian, Inc.),
 the Gaussian(R) 94 system (copyright 1995, Gaussian, Inc.),
 the Gaussian 92(TM) system (copyright 1992, Gaussian, Inc.),
 the Gaussian 90(TM) system (copyright 1990, Gaussian, Inc.),
 the Gaussian 88(TM) system (copyright 1988, Gaussian, Inc.),
 the Gaussian 86(TM) system (copyright 1986, Carnegie Mellon
 University), and the Gaussian 82(TM) system (copyright 1983,
 Carnegie Mellon University). Gaussian is a federally registered
 trademark of Gaussian, Inc.
  
 This software contains proprietary and confidential information,
 including trade secrets, belonging to Gaussian, Inc.
  
 This software is provided under written license and may be
 used, copied, transmitted, or stored only in accord with that
 written license.
  
 The following legend is applicable only to US Government
 contracts under FAR:
  
                    RESTRICTED RIGHTS LEGEND
  
 Use, reproduction and disclosure by the US Government is
 subject to restrictions as set forth in subparagraphs (a)
 and (c) of the Commercial Computer Software - Restricted
 Rights clause in FAR 52.227-19.
  
 Gaussian, Inc.
 340 Quinnipiac St., Bldg. 40, Wallingford CT 06492
  
  
 ---------------------------------------------------------------
 Warning -- This program may not be used in any manner that
 competes with the business of Gaussian, Inc. or will provide
 assistance to any competitor of Gaussian, Inc.  The licensee
 of this program is prohibited from giving any competitor of
 Gaussian, Inc. access to this program.  By using this program,
 the user acknowledges that Gaussian, Inc. is engaged in the
 business of creating and licensing software in the field of
 computational chemistry and represents and warrants to the
 licensee that it is not a competitor of Gaussian, Inc. and that
 it will not use this program in any manner prohibited above.
 ---------------------------------------------------------------
  

 Cite this work as:
 Gaussian 16, Revision C.01,
 M. J. Frisch, G. W. Trucks, H. B. Schlegel, G. E. Scuseria, 
 M. A. Robb, J. R. Cheeseman, G. Scalmani, V. Barone, 
 G. A. Petersson, H. Nakatsuji, X. Li, M. Caricato, A. V. Marenich, 
 J. Bloino, B. G. Janesko, R. Gomperts, B. Mennucci, H. P. Hratchian, 
 J. V. Ortiz, A. F. Izmaylov, J. L. Sonnenberg, D. Williams-Young, 
 F. Ding, F. Lipparini, F. Egidi, J. Goings, B. Peng, A. Petrone, 
 T. Henderson, D. Ranasinghe, V. G. Zakrzewski, J. Gao, N. Rega, 
 G. Zheng, W. Liang, M. Hada, M. Ehara, K. Toyota, R. Fukuda, 
 J. Hasegawa, M. Ishida, T. Nakajima, Y. Honda, O. Kitao, H. Nakai, 
 T. Vreven, K. Throssell, J. A. Montgomery, Jr., J. E. Peralta, 
 F. Ogliaro, M. J. Bearpark, J. J. Heyd, E. N. Brothers, K. N. Kudin, 
 V. N. Staroverov, T. A. Keith, R. Kobayashi, J. Normand, 
 K. Raghavachari, A. P. Rendell, J. C. Burant, S. S. Iyengar, 
 J. Tomasi, M. Cossi, J. M. Millam, M. Klene, C. Adamo, R. Cammi, 
 J. W. Ochterski, R. L. Martin, K. Morokuma, O. Farkas, 
 J. B. Foresman, and D. J. Fox, Gaussian, Inc., Wallingford CT, 2019.
 
 ******************************************
 Gaussian 16:  ES64L-G16RevC.01  3-Jul-2019
                24-Oct-2021 
 ******************************************
 %mem=30GB
 %chk=/home/rong/g16/learning/cyclohexaneNMeCH2CH3.chk
 %nprocshared=16
 Will use up to   16 processors via shared memory.
 ----------------------------------------------------
 # opt freq b3lyp/6-31g(d) scrf=(smd,solvent=toluene)
 ----------------------------------------------------
 1/18=20,19=15,26=3,38=1/1,3;
 2/9=110,12=2,17=6,18=5,40=1/2;
 3/5=1,6=6,7=1,11=2,25=1,30=1,70=32201,71=1,72=13,74=-5/1,2,3;
 4//1;
 5/5=2,38=5,53=13/2;
 6/7=2,8=2,9=2,10=2,28=1/1;
 7//1,2,3,16;
 1/18=20,19=15,26=3/3(2);
 2/9=110/2;
 99//99;
 2/9=110/2;
 3/5=1,6=6,7=1,11=2,25=1,30=1,70=32205,71=1,72=13,74=-5/1,2,3;
 4/5=5,16=3,69=1/1;
 5/5=2,38=5,53=13/2;
 7//1,2,3,16;
 1/18=20,19=15,26=3/3(-5);
 2/9=110/2;
 6/7=2,8=2,9=2,10=2,19=2,28=1/1;
 99/9=1/99;
 --------------------
 cyclohexaneNMeCH2CH3
 --------------------
 Symbolic Z-matrix:
 Charge =  0 Multiplicity = 1
 C                    -2.28763  -1.64635   0.00308 
 C                    -0.77252  -1.64635   0.00308 
 C                    -0.22059  -0.23527   0.00308 
 C                    -0.77025   0.56926   1.16374 
 C                    -2.28538   0.56992   1.16325 
 C                    -2.83818  -0.8407    1.16196 
 H                     0.89801  -0.26926   0.06579 
 H                    -0.39997  -2.19199   0.90964 
 H                    -2.66031  -1.21332  -0.96231 
 H                    -0.39772   0.13442   2.12835 
 H                    -0.39423   1.6234    1.10175 
 H                    -2.6607    1.11935   2.06537 
 H                    -2.65723   1.11653   0.25693 
 H                    -2.57217  -1.34642   2.12727 
 H                    -3.95672  -0.80564   1.09702 
 H                    -0.48921   0.27036  -0.96147 
 N                    -2.78019  -3.02887   0.08636 
 N                    -0.28038  -2.3674   -1.17963 
 C                    -3.15239  -3.33359   1.47542 
 H                    -4.00228  -2.74623   1.75399 
 H                    -3.39359  -4.37259   1.56031 
 H                    -2.33224  -3.10376   2.12305 
 C                    -3.95679  -3.18294  -0.78127 
 H                    -3.71884  -2.84507  -1.76824 
 H                    -4.76627  -2.60217  -0.39094 
 C                    -4.36684  -4.66649  -0.83148 
 H                    -5.02386  -4.88276  -0.01511 
 H                    -4.86797  -4.86695  -1.75537 
 H                    -3.49359  -5.28055  -0.75883 
 C                     0.36133  -3.62076  -0.7575 
 H                    -0.16241  -4.45078  -1.18373 
 H                     1.37789  -3.63102  -1.09128 
 H                     0.33561  -3.6928    0.30976 
 C                     0.69745  -1.53173  -1.89124 
 H                     1.10582  -2.08198  -2.71304 
 H                     0.21387  -0.65026  -2.25737 
 C                     1.83009  -1.13298  -0.92702 
 H                     2.76133  -1.50974  -1.29546 
 H                     1.87963  -0.06645  -0.85662 
 H                     1.63628  -1.5457    0.04097 
 

 GradGradGradGradGradGradGradGradGradGradGradGradGradGradGradGradGradGrad
 Berny optimization.
 Initialization pass.
                           ----------------------------
                           !    Initial Parameters    !
                           ! (Angstroms and Degrees)  !
 --------------------------                            --------------------------
 ! Name  Definition              Value          Derivative Info.                !
 --------------------------------------------------------------------------------
 ! R1    R(1,2)                  1.5151         estimate D2E/DX2                !
 ! R2    R(1,6)                  1.515          estimate D2E/DX2                !
 ! R3    R(1,9)                  1.1218         estimate D2E/DX2                !
 ! R4    R(1,17)                 1.47           estimate D2E/DX2                !
 ! R5    R(2,3)                  1.5152         estimate D2E/DX2                !
 ! R6    R(2,8)                  1.1218         estimate D2E/DX2                !
 ! R7    R(2,18)                 1.47           estimate D2E/DX2                !
 ! R8    R(3,4)                  1.5154         estimate D2E/DX2                !
 ! R9    R(3,7)                  1.1209         estimate D2E/DX2                !
 ! R10   R(3,16)                 1.1217         estimate D2E/DX2                !
 ! R11   R(4,5)                  1.5151         estimate D2E/DX2                !
 ! R12   R(4,10)                 1.1218         estimate D2E/DX2                !
 ! R13   R(4,11)                 1.1209         estimate D2E/DX2                !
 ! R14   R(5,6)                  1.5151         estimate D2E/DX2                !
 ! R15   R(5,12)                 1.121          estimate D2E/DX2                !
 ! R16   R(5,13)                 1.1218         estimate D2E/DX2                !
 ! R17   R(6,14)                 1.1218         estimate D2E/DX2                !
 ! R18   R(6,15)                 1.121          estimate D2E/DX2                !
 ! R19   R(17,19)                1.47           estimate D2E/DX2                !
 ! R20   R(17,23)                1.47           estimate D2E/DX2                !
 ! R21   R(18,30)                1.47           estimate D2E/DX2                !
 ! R22   R(18,34)                1.47           estimate D2E/DX2                !
 ! R23   R(19,20)                1.07           estimate D2E/DX2                !
 ! R24   R(19,21)                1.07           estimate D2E/DX2                !
 ! R25   R(19,22)                1.07           estimate D2E/DX2                !
 ! R26   R(23,24)                1.07           estimate D2E/DX2                !
 ! R27   R(23,25)                1.07           estimate D2E/DX2                !
 ! R28   R(23,26)                1.54           estimate D2E/DX2                !
 ! R29   R(26,27)                1.07           estimate D2E/DX2                !
 ! R30   R(26,28)                1.07           estimate D2E/DX2                !
 ! R31   R(26,29)                1.07           estimate D2E/DX2                !
 ! R32   R(30,31)                1.07           estimate D2E/DX2                !
 ! R33   R(30,32)                1.07           estimate D2E/DX2                !
 ! R34   R(30,33)                1.07           estimate D2E/DX2                !
 ! R35   R(34,35)                1.07           estimate D2E/DX2                !
 ! R36   R(34,36)                1.07           estimate D2E/DX2                !
 ! R37   R(34,37)                1.54           estimate D2E/DX2                !
 ! R38   R(37,38)                1.07           estimate D2E/DX2                !
 ! R39   R(37,39)                1.07           estimate D2E/DX2                !
 ! R40   R(37,40)                1.07           estimate D2E/DX2                !
 ! A1    A(2,1,6)              111.3094         estimate D2E/DX2                !
 ! A2    A(2,1,9)              109.4042         estimate D2E/DX2                !
 ! A3    A(2,1,17)             109.5772         estimate D2E/DX2                !
 ! A4    A(6,1,9)              109.4074         estimate D2E/DX2                !
 ! A5    A(6,1,17)             109.5749         estimate D2E/DX2                !
 ! A6    A(9,1,17)             107.4863         estimate D2E/DX2                !
 ! A7    A(1,2,3)              111.3625         estimate D2E/DX2                !
 ! A8    A(1,2,8)              109.3968         estimate D2E/DX2                !
 ! A9    A(1,2,18)             109.5595         estimate D2E/DX2                !
 ! A10   A(3,2,8)              109.3908         estimate D2E/DX2                !
 ! A11   A(3,2,18)             109.5638         estimate D2E/DX2                !
 ! A12   A(8,2,18)             107.4839         estimate D2E/DX2                !
 ! A13   A(2,3,4)              111.2413         estimate D2E/DX2                !
 ! A14   A(2,3,7)              109.59           estimate D2E/DX2                !
 ! A15   A(2,3,16)             109.4252         estimate D2E/DX2                !
 ! A16   A(4,3,7)              109.586          estimate D2E/DX2                !
 ! A17   A(4,3,16)             109.4158         estimate D2E/DX2                !
 ! A18   A(7,3,16)             107.5042         estimate D2E/DX2                !
 ! A19   A(3,4,5)              111.2657         estimate D2E/DX2                !
 ! A20   A(3,4,10)             109.4111         estimate D2E/DX2                !
 ! A21   A(3,4,11)             109.5868         estimate D2E/DX2                !
 ! A22   A(5,4,10)             109.4233         estimate D2E/DX2                !
 ! A23   A(5,4,11)             109.5746         estimate D2E/DX2                !
 ! A24   A(10,4,11)            107.5            estimate D2E/DX2                !
 ! A25   A(4,5,6)              111.3744         estimate D2E/DX2                !
 ! A26   A(4,5,12)             109.5589         estimate D2E/DX2                !
 ! A27   A(4,5,13)             109.3871         estimate D2E/DX2                !
 ! A28   A(6,5,12)             109.5649         estimate D2E/DX2                !
 ! A29   A(6,5,13)             109.3914         estimate D2E/DX2                !
 ! A30   A(12,5,13)            107.4801         estimate D2E/DX2                !
 ! A31   A(1,6,5)              111.2962         estimate D2E/DX2                !
 ! A32   A(1,6,14)             109.4108         estimate D2E/DX2                !
 ! A33   A(1,6,15)             109.5686         estimate D2E/DX2                !
 ! A34   A(5,6,14)             109.42           estimate D2E/DX2                !
 ! A35   A(5,6,15)             109.5728         estimate D2E/DX2                !
 ! A36   A(14,6,15)            107.4917         estimate D2E/DX2                !
 ! A37   A(1,17,19)            109.4712         estimate D2E/DX2                !
 ! A38   A(1,17,23)            109.4712         estimate D2E/DX2                !
 ! A39   A(19,17,23)           109.4713         estimate D2E/DX2                !
 ! A40   A(2,18,30)            109.4712         estimate D2E/DX2                !
 ! A41   A(2,18,34)            109.4712         estimate D2E/DX2                !
 ! A42   A(30,18,34)           109.4713         estimate D2E/DX2                !
 ! A43   A(17,19,20)           109.4712         estimate D2E/DX2                !
 ! A44   A(17,19,21)           109.4712         estimate D2E/DX2                !
 ! A45   A(17,19,22)           109.4712         estimate D2E/DX2                !
 ! A46   A(20,19,21)           109.4713         estimate D2E/DX2                !
 ! A47   A(20,19,22)           109.4712         estimate D2E/DX2                !
 ! A48   A(21,19,22)           109.4712         estimate D2E/DX2                !
 ! A49   A(17,23,24)           109.4712         estimate D2E/DX2                !
 ! A50   A(17,23,25)           109.4712         estimate D2E/DX2                !
 ! A51   A(17,23,26)           109.4712         estimate D2E/DX2                !
 ! A52   A(24,23,25)           109.4712         estimate D2E/DX2                !
 ! A53   A(24,23,26)           109.4713         estimate D2E/DX2                !
 ! A54   A(25,23,26)           109.4712         estimate D2E/DX2                !
 ! A55   A(23,26,27)           109.4712         estimate D2E/DX2                !
 ! A56   A(23,26,28)           109.4712         estimate D2E/DX2                !
 ! A57   A(23,26,29)           109.4712         estimate D2E/DX2                !
 ! A58   A(27,26,28)           109.4713         estimate D2E/DX2                !
 ! A59   A(27,26,29)           109.4712         estimate D2E/DX2                !
 ! A60   A(28,26,29)           109.4712         estimate D2E/DX2                !
 ! A61   A(18,30,31)           109.4712         estimate D2E/DX2                !
 ! A62   A(18,30,32)           109.4712         estimate D2E/DX2                !
 ! A63   A(18,30,33)           109.4712         estimate D2E/DX2                !
 ! A64   A(31,30,32)           109.4713         estimate D2E/DX2                !
 ! A65   A(31,30,33)           109.4712         estimate D2E/DX2                !
 ! A66   A(32,30,33)           109.4712         estimate D2E/DX2                !
 ! A67   A(18,34,35)           109.4712         estimate D2E/DX2                !
 ! A68   A(18,34,36)           109.4712         estimate D2E/DX2                !
 ! A69   A(18,34,37)           109.4712         estimate D2E/DX2                !
 ! A70   A(35,34,36)           109.4712         estimate D2E/DX2                !
 ! A71   A(35,34,37)           109.4713         estimate D2E/DX2                !
 ! A72   A(36,34,37)           109.4712         estimate D2E/DX2                !
 ! A73   A(34,37,38)           109.4712         estimate D2E/DX2                !
 ! A74   A(34,37,39)           109.4712         estimate D2E/DX2                !
 ! A75   A(34,37,40)           109.4712         estimate D2E/DX2                !
 ! A76   A(38,37,39)           109.4713         estimate D2E/DX2                !
 ! A77   A(38,37,40)           109.4712         estimate D2E/DX2                !
 ! A78   A(39,37,40)           109.4712         estimate D2E/DX2                !
 ! D1    D(6,1,2,3)            -55.1928         estimate D2E/DX2                !
 ! D2    D(6,1,2,8)             65.8497         estimate D2E/DX2                !
 ! D3    D(6,1,2,18)          -176.5618         estimate D2E/DX2                !
 ! D4    D(9,1,2,3)             65.8411         estimate D2E/DX2                !
 ! D5    D(9,1,2,8)           -173.1163         estimate D2E/DX2                !
 ! D6    D(9,1,2,18)           -55.5279         estimate D2E/DX2                !
 ! D7    D(17,1,2,3)          -176.5529         estimate D2E/DX2                !
 ! D8    D(17,1,2,8)           -55.5104         estimate D2E/DX2                !
 ! D9    D(17,1,2,18)           62.0781         estimate D2E/DX2                !
 ! D10   D(2,1,6,5)             55.0823         estimate D2E/DX2                !
 ! D11   D(2,1,6,14)           -65.9633         estimate D2E/DX2                !
 ! D12   D(2,1,6,15)           176.4253         estimate D2E/DX2                !
 ! D13   D(9,1,6,5)            -65.9498         estimate D2E/DX2                !
 ! D14   D(9,1,6,14)           173.0046         estimate D2E/DX2                !
 ! D15   D(9,1,6,15)            55.3933         estimate D2E/DX2                !
 ! D16   D(17,1,6,5)           176.4437         estimate D2E/DX2                !
 ! D17   D(17,1,6,14)           55.3981         estimate D2E/DX2                !
 ! D18   D(17,1,6,15)          -62.2133         estimate D2E/DX2                !
 ! D19   D(2,1,17,19)           99.1664         estimate D2E/DX2                !
 ! D20   D(2,1,17,23)         -140.8336         estimate D2E/DX2                !
 ! D21   D(6,1,17,19)          -23.2332         estimate D2E/DX2                !
 ! D22   D(6,1,17,23)           96.7669         estimate D2E/DX2                !
 ! D23   D(9,1,17,19)         -142.0347         estimate D2E/DX2                !
 ! D24   D(9,1,17,23)          -22.0346         estimate D2E/DX2                !
 ! D25   D(1,2,3,4)             55.2571         estimate D2E/DX2                !
 ! D26   D(1,2,3,7)            176.5953         estimate D2E/DX2                !
 ! D27   D(1,2,3,16)           -65.7573         estimate D2E/DX2                !
 ! D28   D(8,2,3,4)            -65.7889         estimate D2E/DX2                !
 ! D29   D(8,2,3,7)             55.5492         estimate D2E/DX2                !
 ! D30   D(8,2,3,16)           173.1966         estimate D2E/DX2                !
 ! D31   D(18,2,3,4)           176.6237         estimate D2E/DX2                !
 ! D32   D(18,2,3,7)           -62.0382         estimate D2E/DX2                !
 ! D33   D(18,2,3,16)           55.6092         estimate D2E/DX2                !
 ! D34   D(1,2,18,30)         -111.4544         estimate D2E/DX2                !
 ! D35   D(1,2,18,34)          128.5456         estimate D2E/DX2                !
 ! D36   D(3,2,18,30)          126.0985         estimate D2E/DX2                !
 ! D37   D(3,2,18,34)            6.0985         estimate D2E/DX2                !
 ! D38   D(8,2,18,30)            7.3245         estimate D2E/DX2                !
 ! D39   D(8,2,18,34)         -112.6756         estimate D2E/DX2                !
 ! D40   D(2,3,4,5)            -55.2366         estimate D2E/DX2                !
 ! D41   D(2,3,4,10)            65.7936         estimate D2E/DX2                !
 ! D42   D(2,3,4,11)          -176.5742         estimate D2E/DX2                !
 ! D43   D(7,3,4,5)           -176.5771         estimate D2E/DX2                !
 ! D44   D(7,3,4,10)           -55.5468         estimate D2E/DX2                !
 ! D45   D(7,3,4,11)            62.0853         estimate D2E/DX2                !
 ! D46   D(16,3,4,5)            65.7833         estimate D2E/DX2                !
 ! D47   D(16,3,4,10)         -173.1864         estimate D2E/DX2                !
 ! D48   D(16,3,4,11)          -55.5543         estimate D2E/DX2                !
 ! D49   D(3,4,5,6)             55.2381         estimate D2E/DX2                !
 ! D50   D(3,4,5,12)           176.6158         estimate D2E/DX2                !
 ! D51   D(3,4,5,13)           -65.8064         estimate D2E/DX2                !
 ! D52   D(10,4,5,6)           -65.785          estimate D2E/DX2                !
 ! D53   D(10,4,5,12)           55.5927         estimate D2E/DX2                !
 ! D54   D(10,4,5,13)          173.1705         estimate D2E/DX2                !
 ! D55   D(11,4,5,6)           176.5828         estimate D2E/DX2                !
 ! D56   D(11,4,5,12)          -62.0395         estimate D2E/DX2                !
 ! D57   D(11,4,5,13)           55.5383         estimate D2E/DX2                !
 ! D58   D(4,5,6,1)            -55.1527         estimate D2E/DX2                !
 ! D59   D(4,5,6,14)            65.8876         estimate D2E/DX2                !
 ! D60   D(4,5,6,15)          -176.4932         estimate D2E/DX2                !
 ! D61   D(12,5,6,1)          -176.5268         estimate D2E/DX2                !
 ! D62   D(12,5,6,14)          -55.4866         estimate D2E/DX2                !
 ! D63   D(12,5,6,15)           62.1326         estimate D2E/DX2                !
 ! D64   D(13,5,6,1)            65.8893         estimate D2E/DX2                !
 ! D65   D(13,5,6,14)         -173.0704         estimate D2E/DX2                !
 ! D66   D(13,5,6,15)          -55.4512         estimate D2E/DX2                !
 ! D67   D(1,17,19,20)          67.0583         estimate D2E/DX2                !
 ! D68   D(1,17,19,21)        -172.9417         estimate D2E/DX2                !
 ! D69   D(1,17,19,22)         -52.9417         estimate D2E/DX2                !
 ! D70   D(23,17,19,20)        -52.9417         estimate D2E/DX2                !
 ! D71   D(23,17,19,21)         67.0583         estimate D2E/DX2                !
 ! D72   D(23,17,19,22)       -172.9417         estimate D2E/DX2                !
 ! D73   D(1,17,23,24)          53.0073         estimate D2E/DX2                !
 ! D74   D(1,17,23,25)         -66.9927         estimate D2E/DX2                !
 ! D75   D(1,17,23,26)         173.0073         estimate D2E/DX2                !
 ! D76   D(19,17,23,24)        173.0073         estimate D2E/DX2                !
 ! D77   D(19,17,23,25)         53.0073         estimate D2E/DX2                !
 ! D78   D(19,17,23,26)        -66.9927         estimate D2E/DX2                !
 ! D79   D(2,18,30,31)         118.637          estimate D2E/DX2                !
 ! D80   D(2,18,30,32)        -121.363          estimate D2E/DX2                !
 ! D81   D(2,18,30,33)          -1.363          estimate D2E/DX2                !
 ! D82   D(34,18,30,31)       -121.363          estimate D2E/DX2                !
 ! D83   D(34,18,30,32)         -1.363          estimate D2E/DX2                !
 ! D84   D(34,18,30,33)        118.637          estimate D2E/DX2                !
 ! D85   D(2,18,34,35)         176.1104         estimate D2E/DX2                !
 ! D86   D(2,18,34,36)         -63.8896         estimate D2E/DX2                !
 ! D87   D(2,18,34,37)          56.1104         estimate D2E/DX2                !
 ! D88   D(30,18,34,35)         56.1104         estimate D2E/DX2                !
 ! D89   D(30,18,34,36)        176.1104         estimate D2E/DX2                !
 ! D90   D(30,18,34,37)        -63.8896         estimate D2E/DX2                !
 ! D91   D(17,23,26,27)         86.8554         estimate D2E/DX2                !
 ! D92   D(17,23,26,28)       -153.1446         estimate D2E/DX2                !
 ! D93   D(17,23,26,29)        -33.1446         estimate D2E/DX2                !
 ! D94   D(24,23,26,27)       -153.1446         estimate D2E/DX2                !
 ! D95   D(24,23,26,28)        -33.1446         estimate D2E/DX2                !
 ! D96   D(24,23,26,29)         86.8554         estimate D2E/DX2                !
 ! D97   D(25,23,26,27)        -33.1446         estimate D2E/DX2                !
 ! D98   D(25,23,26,28)         86.8554         estimate D2E/DX2                !
 ! D99   D(25,23,26,29)       -153.1446         estimate D2E/DX2                !
 ! D100  D(18,34,37,38)        119.2504         estimate D2E/DX2                !
 ! D101  D(18,34,37,39)       -120.7496         estimate D2E/DX2                !
 ! D102  D(18,34,37,40)         -0.7496         estimate D2E/DX2                !
 ! D103  D(35,34,37,38)         -0.7496         estimate D2E/DX2                !
 ! D104  D(35,34,37,39)        119.2505         estimate D2E/DX2                !
 ! D105  D(35,34,37,40)       -120.7496         estimate D2E/DX2                !
 ! D106  D(36,34,37,38)       -120.7496         estimate D2E/DX2                !
 ! D107  D(36,34,37,39)         -0.7496         estimate D2E/DX2                !
 ! D108  D(36,34,37,40)        119.2504         estimate D2E/DX2                !
 --------------------------------------------------------------------------------
 Trust Radius=3.00D-01 FncErr=1.00D-07 GrdErr=1.00D-06 EigMax=2.50D+02 EigMin=1.00D-04
 Number of steps in this run=    236 maximum allowed number of steps=    240.
 GradGradGradGradGradGradGradGradGradGradGradGradGradGradGradGradGradGrad

                          Input orientation:                          
 ---------------------------------------------------------------------
 Center     Atomic      Atomic             Coordinates (Angstroms)
 Number     Number       Type             X           Y           Z
 ---------------------------------------------------------------------
      1          6           0       -2.287625   -1.646352    0.003080
      2          6           0       -0.772519   -1.646352    0.003080
      3          6           0       -0.220588   -0.235274    0.003080
      4          6           0       -0.770251    0.569263    1.163741
      5          6           0       -2.285376    0.569924    1.163252
      6          6           0       -2.838176   -0.840697    1.161956
      7          1           0        0.898011   -0.269265    0.065794
      8          1           0       -0.399970   -2.191986    0.909642
      9          1           0       -2.660313   -1.213323   -0.962305
     10          1           0       -0.397716    0.134418    2.128352
     11          1           0       -0.394228    1.623400    1.101746
     12          1           0       -2.660696    1.119352    2.065366
     13          1           0       -2.657231    1.116525    0.256929
     14          1           0       -2.572172   -1.346419    2.127271
     15          1           0       -3.956724   -0.805636    1.097018
     16          1           0       -0.489206    0.270359   -0.961466
     17          7           0       -2.780187   -3.028867    0.086357
     18          7           0       -0.280384   -2.367401   -1.179625
     19          6           0       -3.152393   -3.333592    1.475423
     20          1           0       -4.002278   -2.746230    1.753993
     21          1           0       -3.393588   -4.372591    1.560312
     22          1           0       -2.332239   -3.103763    2.123054
     23          6           0       -3.956788   -3.182937   -0.781267
     24          1           0       -3.718840   -2.845066   -1.768244
     25          1           0       -4.766268   -2.602172   -0.390942
     26          6           0       -4.366839   -4.666492   -0.831475
     27          1           0       -5.023858   -4.882759   -0.015108
     28          1           0       -4.867970   -4.866950   -1.755372
     29          1           0       -3.493595   -5.280550   -0.758830
     30          6           0        0.361328   -3.620764   -0.757503
     31          1           0       -0.162412   -4.450779   -1.183732
     32          1           0        1.377886   -3.631021   -1.091278
     33          1           0        0.335607   -3.692803    0.309759
     34          6           0        0.697449   -1.531730   -1.891241
     35          1           0        1.105825   -2.081981   -2.713040
     36          1           0        0.213865   -0.650255   -2.257369
     37          6           0        1.830089   -1.132980   -0.927019
     38          1           0        2.761327   -1.509741   -1.295458
     39          1           0        1.879626   -0.066448   -0.856622
     40          1           0        1.636277   -1.545697    0.040970
 ---------------------------------------------------------------------
                    Distance matrix (angstroms):
                    1          2          3          4          5
     1  C    0.000000
     2  C    1.515106   0.000000
     3  C    2.502755   1.515180   0.000000
     4  C    2.925493   2.501217   1.515435   0.000000
     5  C    2.501576   2.923459   2.501538   1.515125   0.000000
     6  C    1.514985   2.501802   2.925970   2.502859   1.515071
     7  H    3.471106   2.165865   1.120871   2.166037   3.470246
     8  H    2.163981   1.121768   2.163967   2.797529   3.353688
     9  H    1.121775   2.164081   2.800144   3.357085   2.799739
    10  H    3.355545   2.797928   2.164446   1.121761   2.164334
    11  H    3.934882   3.470079   2.166076   1.120911   2.165649
    12  H    3.470061   3.932856   3.470182   2.165481   1.120958
    13  H    2.799024   3.354112   2.798040   2.163908   1.121816
    14  H    2.164050   2.800160   3.358091   2.800919   2.164245
    15  H    2.165501   3.470254   3.934555   3.471082   2.165631
    16  H    2.799722   2.164347   1.121681   2.164448   2.798284
    17  N    1.470000   2.439060   3.789808   4.259946   3.788910
    18  N    2.438795   1.470000   2.438920   3.788843   4.258749
    19  C    2.400500   3.267778   4.512522   4.583015   4.010812
    20  H    2.686161   3.834940   4.865365   4.667642   3.780688
    21  H    3.328739   4.089909   5.441534   5.609018   5.080772
    22  H    2.572999   3.008498   4.145067   4.105022   3.797287
    23  C    2.400500   3.621583   4.823184   5.293022   4.545188
    24  H    2.573496   3.640784   4.710241   5.380368   4.723415
    25  H    2.685613   4.125394   5.140103   5.333215   4.316542
    26  C    3.760434   4.768319   6.125649   6.658038   5.977582
    27  H    4.238116   5.343084   6.683625   7.014799   6.214464
    28  H    4.485820   5.498829   6.792844   7.407087   6.689376
    29  H    3.904135   4.603494   6.062004   6.732993   6.275527
    30  C    3.390242   2.400500   3.518331   4.746364   5.315657
    31  H    3.713471   3.105731   4.379771   5.575027   5.934878
    32  H    4.309582   3.124223   3.909455   5.228957   6.012515
    33  H    3.341161   2.347330   3.515382   4.485244   5.076302
    34  C    3.537267   2.400500   2.472255   3.987635   4.758585
    35  H    4.368362   3.330954   3.542175   5.057488   5.792969
    36  H    3.515578   2.659848   2.338929   3.762938   4.408593
    37  C    4.252553   2.811086   2.424095   3.745754   4.919976
    38  H    5.215053   3.767350   3.493177   4.779326   5.986608
    39  H    4.538851   3.204537   2.275630   3.392321   4.672484
    40  H    3.925376   2.411196   2.273014   3.394856   4.595077
                    6          7          8          9         10
     6  C    0.000000
     7  H    3.935378   0.000000
     8  H    2.799016   2.468540   0.000000
     9  H    2.164017   3.822290   3.093722   0.000000
    10  H    2.800110   2.469011   2.626293   4.060531   0.000000
    11  H    3.471063   2.515007   3.820223   4.176415   1.808590
    12  H    2.165512   4.311721   4.172714   3.822063   2.468834
    13  H    2.163916   3.820562   4.058018   2.629588   3.093892
    14  H    1.121760   4.177573   2.629841   3.093697   2.630806
    15  H    1.120980   4.991950   3.821986   2.467327   3.822812
    16  H    3.355745   1.808543   3.093889   2.629642   3.094160
    17  N    2.438927   4.598365   2.653978   2.100062   4.455590
    18  N    3.788948   2.709586   2.100026   2.653901   4.149166
    19  C    2.532098   5.270951   3.033019   3.268058   4.476791
    20  H    2.310129   5.744406   3.741221   3.395430   4.629378
    21  H    3.597422   6.122801   3.760340   4.108803   5.441604
    22  H    2.510209   4.764578   2.457105   3.633295   3.772031
    23  C    3.242452   5.725039   4.061048   2.364953   5.669014
    24  H    3.657750   5.595870   4.314219   2.105374   5.923736
    25  H    3.038391   6.142892   4.574312   2.586581   5.737596
    26  C    4.576821   6.918045   4.989060   3.854053   6.896612
    27  H    4.743517   7.507290   5.429158   4.466350   7.153158
    28  H    5.370436   7.596176   5.849851   4.341854   7.751139
    29  H    4.881730   6.714104   4.679054   4.156693   6.873294
    30  C    4.652948   3.492620   2.323866   3.868854   4.796426
    31  H    5.068990   4.491199   3.088818   4.095078   5.661210
    32  H    5.535174   3.587548   3.038959   4.708391   5.262823
    33  H    4.351281   3.477992   1.775777   4.091638   4.300310
    34  C    4.722307   2.337527   3.079808   3.498410   4.486933
    35  H    5.666703   3.324311   3.924710   4.243045   5.532824
    36  H    4.587266   2.451590   3.575428   3.202364   4.497142
    37  C    5.122689   1.612591   3.077008   4.491259   3.988070
    38  H    6.151498   2.619873   3.914297   5.439948   4.940170
    39  H    5.189584   1.362187   3.582480   4.683753   3.759881
    40  H    4.666301   1.474765   2.306206   4.424672   3.364087
                   11         12         13         14         15
    11  H    0.000000
    12  H    2.513863   0.000000
    13  H    2.468161   1.808443   0.000000
    14  H    3.822953   2.468136   3.093785   0.000000
    15  H    4.311800   2.514551   2.467617   1.808550   0.000000
    16  H    2.469126   3.820716   2.626940   4.061159   4.173584
    17  N    5.326106   4.597660   4.150721   2.653155   2.710799
    18  N    4.598272   5.324782   4.455427   4.150935   4.597575
    19  C    5.684970   4.518685   4.640416   2.170350   2.679683
    20  H    5.704131   4.103598   4.355597   2.035684   2.049292
    21  H    6.719997   5.563601   5.689589   3.186516   3.640733
    22  H    5.210088   4.236261   4.625891   1.773652   2.995512
    23  C    6.272037   5.319104   4.609997   3.708039   3.029771
    24  H    6.265547   5.615411   4.574117   4.328490   3.524995
    25  H    6.260855   4.931188   4.323942   3.568244   2.469195
    26  C    7.686464   6.691682   6.127861   4.795612   4.335146
    27  H    8.062936   6.777775   6.454946   4.806896   4.358730
    28  H    8.384637   7.436794   6.688699   5.721865   5.045867
    29  H    7.793096   7.044754   6.530991   4.965480   4.866572
    30  C    5.615063   6.290463   5.708124   4.701063   5.478117
    31  H    6.494059   6.915520   6.268533   5.138749   5.734605
    32  H    5.963110   6.988604   6.374874   5.584033   6.421020
    33  H    5.424197   5.934376   5.664760   4.155002   5.232553
    34  C    4.483813   5.827531   4.783489   5.183937   5.578372
    35  H    5.525631   6.875200   5.762963   6.123506   6.463358
    36  H    4.101577   5.484583   4.205520   5.241346   5.354425
    37  C    4.081801   5.847608   5.157329   5.362289   6.139307
    38  H    5.051800   6.899681   6.218356   6.339397   7.166025
    39  H    3.444010   5.527989   4.818973   5.510032   6.198879
    40  H    3.910419   5.446526   5.056509   4.701427   5.739738
                   16         17         18         19         20
    16  H    0.000000
    17  N    4.151074   0.000000
    18  N    2.654991   2.879109   0.000000
    19  C    5.100927   1.470000   4.028802   0.000000
    20  H    5.367979   2.086720   4.754169   1.070000   0.000000
    21  H    6.029244   2.086720   4.606526   1.070000   1.747303
    22  H    4.929070   2.086720   3.957275   1.070000   1.747303
    23  C    4.897127   1.470000   3.786785   2.400500   2.573000
    24  H    4.559309   2.086720   3.521025   3.328799   3.535005
    25  H    5.183646   2.086720   4.560734   2.573497   2.281486
    26  C    6.278968   2.457987   4.701718   2.928017   3.241136
    27  H    6.929162   2.912262   5.493967   2.850260   2.956028
    28  H    6.796749   3.336068   5.255966   3.966412   4.190766
    29  H    6.315062   2.508659   4.357549   2.983111   3.604971
    30  C    3.988213   3.306291   1.470000   4.173088   5.110135
    31  H    4.737651   3.238473   2.086720   4.154420   5.126430
    32  H    4.327083   4.363368   2.086720   5.215347   6.150169
    33  H    4.242992   3.193570   2.086720   3.695125   4.668946
    34  C    2.349502   4.271565   1.470000   5.422400   6.070435
    35  H    3.338509   4.882039   2.086720   6.102637   6.818235
    36  H    1.738161   4.484996   2.086720   5.697870   6.185466
    37  C    2.711029   5.086842   2.457987   5.953113   6.618678
    38  H    3.721058   5.909782   3.162435   6.780582   7.521595
    39  H    2.394953   5.601696   3.172437   6.436916   6.970892
    40  H    2.969952   4.659078   2.416327   5.309010   6.014070
                   21         22         23         24         25
    21  H    0.000000
    22  H    1.747303   0.000000
    23  C    2.686162   3.328740   0.000000
    24  H    3.676739   4.139057   1.070000   0.000000
    25  H    2.970863   3.535006   1.070000   1.747303   0.000000
    26  C    2.598893   3.912923   1.540000   2.148263   2.148263
    27  H    2.323791   3.870579   2.148263   2.988102   2.325657
    28  H    3.662233   4.957918   2.148263   2.325657   2.645985
    29  H    2.492551   3.793733   2.148263   2.645985   2.988102
    30  C    4.476260   3.977462   4.340321   4.274468   5.240624
    31  H    4.239857   4.178210   4.020783   3.945649   5.024078
    32  H    5.508885   4.937099   5.362428   5.201214   6.268942
    33  H    3.991602   3.279086   4.458134   4.634144   5.263989
    34  C    6.059728   5.269237   5.061665   4.609077   5.766190
    35  H    6.614616   6.020973   5.529367   4.975171   6.335946
    36  H    6.437716   5.629426   5.097813   4.530188   5.665267
    37  C    6.630889   5.523757   6.140970   5.867666   6.779220
    38  H    7.364394   6.338101   6.942409   6.633188   7.660041
    39  H    7.224350   5.986949   6.616790   6.316217   7.128441
    40  H    5.966513   4.744656   5.885492   5.799905   6.503482
                   26         27         28         29         30
    26  C    0.000000
    27  H    1.070000   0.000000
    28  H    1.070000   1.747303   0.000000
    29  H    1.070000   1.747303   1.747303   0.000000
    30  C    4.842994   5.580682   5.467566   4.197061   0.000000
    31  H    4.224669   5.018561   4.758387   3.459168   1.070000
    32  H    5.843078   6.611151   6.401504   5.153910   1.070000
    33  H    4.935938   5.499582   5.720192   4.280842   1.070000
    34  C    6.049534   6.890764   6.489687   5.735927   2.400500
    35  H    6.337984   7.259215   6.660285   5.933333   2.597355
    36  H    6.256691   7.097574   6.622504   6.118048   3.330955
    37  C    7.134196   7.865686   7.713151   6.750721   2.893970
    38  H    7.809680   8.580539   8.347966   7.323320   3.241266
    39  H    7.757537   8.459497   8.329624   7.487852   3.866292
    40  H    6.821872   7.449600   7.520824   6.395655   2.562998
                   31         32         33         34         35
    31  H    0.000000
    32  H    1.747303   0.000000
    33  H    1.747303   1.747303   0.000000
    34  C    3.124224   2.347330   3.105732   0.000000
    35  H    3.091668   2.259127   3.510740   1.070000   0.000000
    36  H    3.967147   3.405830   3.982720   1.070000   1.747303
    37  C    3.878628   2.543949   3.211821   1.540000   2.148263
    38  H    4.148546   2.540753   3.636839   2.148263   2.253372
    39  H    4.847606   3.607352   4.110340   2.148263   2.847355
    40  H    3.629694   2.386908   2.524690   2.148263   2.855443
                   36         37         38         39         40
    36  H    0.000000
    37  C    2.148263   0.000000
    38  H    2.855442   1.070000   0.000000
    39  H    2.253372   1.070000   1.747303   0.000000
    40  H    2.847355   1.070000   1.747303   1.747303   0.000000
 Stoichiometry    C12H26N2
 Framework group  C1[X(C12H26N2)]
 Deg. of freedom   114
 Full point group                 C1      NOp   1
 Largest Abelian subgroup         C1      NOp   1
 Largest concise Abelian subgroup C1      NOp   1
                         Standard orientation:                         
 ---------------------------------------------------------------------
 Center     Atomic      Atomic             Coordinates (Angstroms)
 Number     Number       Type             X           Y           Z
 ---------------------------------------------------------------------
      1          6           0       -0.569959    0.536292   -0.328429
      2          6           0        0.719754   -0.039589    0.219792
      3          6           0        1.916735    0.788853   -0.200554
      4          6           0        1.748288    2.240294    0.201303
      5          6           0        0.458948    2.816394   -0.347618
      6          6           0       -0.738408    1.987892    0.071148
      7          1           0        2.845189    0.373824    0.270695
      8          1           0        0.665767   -0.074514    1.339716
      9          1           0       -0.568282    0.455447   -1.447286
     10          1           0        1.745622    2.319426    1.320266
     11          1           0        2.617741    2.838222   -0.176818
     12          1           0        0.333096    3.868948    0.016850
     13          1           0        0.514000    2.851901   -1.467519
     14          1           0       -0.868351    2.055762    1.183287
     15          1           0       -1.666046    2.402443   -0.402382
     16          1           0        2.044330    0.722342   -1.312968
     17          7           0       -1.709944   -0.247022    0.169317
     18          7           0        0.884441   -1.420092   -0.257691
     19          6           0       -2.321617    0.448831    1.310608
     20          1           0       -2.770027    1.360171    0.974024
     21          1           0       -3.070769   -0.176374    1.749686
     22          1           0       -1.569286    0.669203    2.038849
     23          6           0       -2.704830   -0.399478   -0.902065
     24          1           0       -2.230252   -0.794538   -1.775909
     25          1           0       -3.133332    0.554290   -1.129245
     26          6           0       -3.813405   -1.363317   -0.439813
     27          1           0       -4.565120   -0.815127    0.088688
     28          1           0       -4.251627   -1.838186   -1.292667
     29          1           0       -3.393711   -2.106317    0.205716
     30          6           0        0.742929   -2.349583    0.872318
     31          1           0       -0.088335   -3.000119    0.697097
     32          1           0        1.636087   -2.930601    0.970230
     33          1           0        0.578030   -1.794597    1.772151
     34          6           0        2.218044   -1.575768   -0.856164
     35          1           0        2.363642   -2.596475   -1.142276
     36          1           0        2.296963   -0.948619   -1.719503
     37          6           0        3.292013   -1.172430    0.171216
     38          1           0        3.927116   -2.010111    0.370805
     39          1           0        3.876802   -0.367080   -0.221636
     40          1           0        2.818320   -0.859859    1.078307
 ---------------------------------------------------------------------
 Rotational constants (GHZ):           0.8899418           0.5420689           0.3843124
 Standard basis: 6-31G(d) (6D, 7F)
 There are   262 symmetry adapted cartesian basis functions of A   symmetry.
 There are   262 symmetry adapted basis functions of A   symmetry.
   262 basis functions,   496 primitive gaussians,   262 cartesian basis functions
    56 alpha electrons       56 beta electrons
       nuclear repulsion energy      1058.8571260390 Hartrees.
 NAtoms=   40 NActive=   40 NUniq=   40 SFac= 1.00D+00 NAtFMM=   60 NAOKFM=F Big=F
 Integral buffers will be    131072 words long.
 Raffenetti 2 integral format.
 Two-electron integral symmetry is turned on.
 ------------------------------------------------------------------------------
 Polarizable Continuum Model (PCM)
 =================================
 Model                : PCM.
 Atomic radii         : SMD-Coulomb.
 Polarization charges : Total charges.
 Charge compensation  : None.
 Solution method      : On-the-fly selection.
 Cavity type          : VdW (van der Waals Surface) (Alpha=1.000).
 Cavity algorithm     : GePol (No added spheres)
                        Default sphere list used, NSphG=   40.
                        Lebedev-Laikov grids with approx.  5.0 points / Ang**2.
                        Smoothing algorithm: York/Karplus (Gamma=1.0000).
                        Polarization charges: spherical gaussians, with
                                              point-specific exponents (IZeta= 3).
                        Self-potential: point-specific (ISelfS= 7).
                        Self-field    : sphere-specific E.n sum rule (ISelfD= 2).
 1st derivatives      : Analytical E(r).r(x)/FMM algorithm (CHGder, D1EAlg=3).
                        Cavity 1st derivative terms included.
 Solvent              : Toluene, Eps=   2.374100 Eps(inf)=   2.238315
 ------------------------------------------------------------------------------
 ------------------------------------------------------------------------------
 Atomic radii for non-electrostatic terms: SMD-CDS.
 ------------------------------------------------------------------------------
 Nuclear repulsion after PCM non-electrostatic terms =     1058.8496758396 Hartrees.
 One-electron integrals computed using PRISM.
 NBasis=   262 RedAO= T EigKep=  1.73D-03  NBF=   262
 NBsUse=   262 1.00D-06 EigRej= -1.00D+00 NBFU=   262
 ExpMin= 1.61D-01 ExpMax= 4.17D+03 ExpMxC= 6.27D+02 IAcc=3 IRadAn=         5 AccDes= 0.00D+00
 Harris functional with IExCor=  402 and IRadAn=       5 diagonalized for initial guess.
 HarFok:  IExCor=  402 AccDes= 0.00D+00 IRadAn=         5 IDoV= 1 UseB2=F ITyADJ=14
 ICtDFT=  3500011 ScaDFX=  1.000000  1.000000  1.000000  1.000000
 FoFCou: FMM=F IPFlag=           0 FMFlag=      100000 FMFlg1=           0
         NFxFlg=           0 DoJE=T BraDBF=F KetDBF=T FulRan=T
         wScrn=  0.000000 ICntrl=       500 IOpCl=  0 I1Cent=   200000004 NGrid=           0
         NMat0=    1 NMatS0=      1 NMatT0=    0 NMatD0=    1 NMtDS0=    0 NMtDT0=    0
 Petite list used in FoFCou.
 Requested convergence on RMS density matrix=1.00D-08 within 128 cycles.
 Requested convergence on MAX density matrix=1.00D-06.
 Requested convergence on             energy=1.00D-06.
 No special actions if energy rises.
 Inv3:  Mode=1 IEnd=    16638075.
 Iteration    1 A*A^-1 deviation from unit magnitude is 4.44D-15 for   2338.
 Iteration    1 A*A^-1 deviation from orthogonality  is 2.37D-15 for   1772    878.
 Iteration    1 A^-1*A deviation from unit magnitude is 4.66D-15 for   2338.
 Iteration    1 A^-1*A deviation from orthogonality  is 1.56D-15 for   2319   2239.
 Error on total polarization charges =  0.03604
 SCF Done:  E(RB3LYP) =  -582.303852480     A.U. after   11 cycles
            NFock= 11  Conv=0.75D-08     -V/T= 2.0077
 SMD-CDS (non-electrostatic) energy       (kcal/mol) =      -4.68
 (included in total energy above)

 **********************************************************************

            Population analysis using the SCF Density.

 **********************************************************************

 Orbital symmetries:
       Occupied  (A) (A) (A) (A) (A) (A) (A) (A) (A) (A) (A) (A)
                 (A) (A) (A) (A) (A) (A) (A) (A) (A) (A) (A) (A)
                 (A) (A) (A) (A) (A) (A) (A) (A) (A) (A) (A) (A)
                 (A) (A) (A) (A) (A) (A) (A) (A) (A) (A) (A) (A)
                 (A) (A) (A) (A) (A) (A) (A) (A)
       Virtual   (A) (A) (A) (A) (A) (A) (A) (A) (A) (A) (A) (A)
                 (A) (A) (A) (A) (A) (A) (A) (A) (A) (A) (A) (A)
                 (A) (A) (A) (A) (A) (A) (A) (A) (A) (A) (A) (A)
                 (A) (A) (A) (A) (A) (A) (A) (A) (A) (A) (A) (A)
                 (A) (A) (A) (A) (A) (A) (A) (A) (A) (A) (A) (A)
                 (A) (A) (A) (A) (A) (A) (A) (A) (A) (A) (A) (A)
                 (A) (A) (A) (A) (A) (A) (A) (A) (A) (A) (A) (A)
                 (A) (A) (A) (A) (A) (A) (A) (A) (A) (A) (A) (A)
                 (A) (A) (A) (A) (A) (A) (A) (A) (A) (A) (A) (A)
                 (A) (A) (A) (A) (A) (A) (A) (A) (A) (A) (A) (A)
                 (A) (A) (A) (A) (A) (A) (A) (A) (A) (A) (A) (A)
                 (A) (A) (A) (A) (A) (A) (A) (A) (A) (A) (A) (A)
                 (A) (A) (A) (A) (A) (A) (A) (A) (A) (A) (A) (A)
                 (A) (A) (A) (A) (A) (A) (A) (A) (A) (A) (A) (A)
                 (A) (A) (A) (A) (A) (A) (A) (A) (A) (A) (A) (A)
                 (A) (A) (A) (A) (A) (A) (A) (A) (A) (A) (A) (A)
                 (A) (A) (A) (A) (A) (A) (A) (A) (A) (A) (A) (A)
                 (A) (A)
 The electronic state is 1-A.
 Alpha  occ. eigenvalues --  -14.30124 -14.29856 -10.18685 -10.18674 -10.18628
 Alpha  occ. eigenvalues --  -10.18361 -10.17585 -10.17280 -10.16749 -10.16711
 Alpha  occ. eigenvalues --  -10.16360 -10.15703 -10.15244 -10.14705  -0.92208
 Alpha  occ. eigenvalues --   -0.90038  -0.80773  -0.76133  -0.73760  -0.72545
 Alpha  occ. eigenvalues --   -0.70551  -0.67091  -0.66381  -0.60858  -0.60068
 Alpha  occ. eigenvalues --   -0.56208  -0.55989  -0.53293  -0.49364  -0.47200
 Alpha  occ. eigenvalues --   -0.46446  -0.45866  -0.44819  -0.44335  -0.43159
 Alpha  occ. eigenvalues --   -0.41110  -0.40719  -0.40576  -0.38805  -0.38109
 Alpha  occ. eigenvalues --   -0.37844  -0.37332  -0.36466  -0.35521  -0.34981
 Alpha  occ. eigenvalues --   -0.34786  -0.33777  -0.33386  -0.32809  -0.31573
 Alpha  occ. eigenvalues --   -0.31371  -0.29971  -0.28875  -0.26141  -0.19618
 Alpha  occ. eigenvalues --   -0.18951
 Alpha virt. eigenvalues --    0.08593   0.08845   0.09966   0.10883   0.12005
 Alpha virt. eigenvalues --    0.13065   0.13877   0.14220   0.15068   0.15768
 Alpha virt. eigenvalues --    0.16074   0.16565   0.16860   0.17913   0.18064
 Alpha virt. eigenvalues --    0.18460   0.18998   0.19574   0.19950   0.21002
 Alpha virt. eigenvalues --    0.21434   0.21842   0.22425   0.22912   0.23358
 Alpha virt. eigenvalues --    0.24284   0.24771   0.25789   0.25880   0.26903
 Alpha virt. eigenvalues --    0.27340   0.27780   0.29091   0.29499   0.30927
 Alpha virt. eigenvalues --    0.32312   0.33016   0.34042   0.35459   0.38008
 Alpha virt. eigenvalues --    0.52504   0.52585   0.53364   0.54267   0.54972
 Alpha virt. eigenvalues --    0.55286   0.56187   0.56655   0.57532   0.57747
 Alpha virt. eigenvalues --    0.59330   0.61095   0.62182   0.64639   0.64719
 Alpha virt. eigenvalues --    0.65124   0.66731   0.67614   0.68283   0.69992
 Alpha virt. eigenvalues --    0.71265   0.72583   0.73259   0.74697   0.76705
 Alpha virt. eigenvalues --    0.78445   0.79005   0.80119   0.81451   0.82635
 Alpha virt. eigenvalues --    0.83499   0.84974   0.85447   0.86129   0.86871
 Alpha virt. eigenvalues --    0.88378   0.88408   0.89434   0.89977   0.90148
 Alpha virt. eigenvalues --    0.90644   0.91479   0.91968   0.92188   0.92427
 Alpha virt. eigenvalues --    0.93463   0.94346   0.94541   0.95456   0.96583
 Alpha virt. eigenvalues --    0.96855   0.97945   0.98767   0.99966   1.00676
 Alpha virt. eigenvalues --    1.01570   1.03273   1.03843   1.04771   1.06401
 Alpha virt. eigenvalues --    1.06659   1.08200   1.11525   1.12658   1.14083
 Alpha virt. eigenvalues --    1.19410   1.19976   1.21684   1.25018   1.29067
 Alpha virt. eigenvalues --    1.30572   1.32194   1.37185   1.38676   1.43009
 Alpha virt. eigenvalues --    1.45934   1.46514   1.49782   1.53932   1.57106
 Alpha virt. eigenvalues --    1.58813   1.64069   1.67507   1.68131   1.71405
 Alpha virt. eigenvalues --    1.74785   1.75954   1.77264   1.79516   1.81596
 Alpha virt. eigenvalues --    1.83065   1.85337   1.85899   1.87710   1.91123
 Alpha virt. eigenvalues --    1.92919   1.95205   1.95526   1.96399   1.97309
 Alpha virt. eigenvalues --    1.97929   1.99483   1.99956   2.01605   2.03021
 Alpha virt. eigenvalues --    2.03507   2.05405   2.07611   2.08199   2.11091
 Alpha virt. eigenvalues --    2.12659   2.13319   2.15095   2.16713   2.16950
 Alpha virt. eigenvalues --    2.20906   2.22027   2.23312   2.24763   2.27109
 Alpha virt. eigenvalues --    2.28634   2.30250   2.31951   2.33469   2.34963
 Alpha virt. eigenvalues --    2.35489   2.37527   2.38825   2.39801   2.40197
 Alpha virt. eigenvalues --    2.41257   2.43202   2.46032   2.47984   2.53103
 Alpha virt. eigenvalues --    2.54336   2.56766   2.58086   2.62169   2.64227
 Alpha virt. eigenvalues --    2.67314   2.68295   2.70428   2.73216   2.76928
 Alpha virt. eigenvalues --    2.78406   2.83800   2.84777   2.87267   2.92937
 Alpha virt. eigenvalues --    2.98928   3.03529   4.11872   4.15605   4.22340
 Alpha virt. eigenvalues --    4.24562   4.30395   4.32692   4.34120   4.37267
 Alpha virt. eigenvalues --    4.43328   4.49550   4.55230   4.60417   4.69144
 Alpha virt. eigenvalues --    4.76007
          Condensed to atoms (all electrons):
               1          2          3          4          5          6
     1  C    4.961134   0.361118  -0.034138  -0.014097  -0.035646   0.344502
     2  C    0.361118   4.998906   0.346551  -0.033130  -0.012922  -0.047036
     3  C   -0.034138   0.346551   5.262046   0.352957  -0.049769  -0.007751
     4  C   -0.014097  -0.033130   0.352957   5.021425   0.384306  -0.050796
     5  C   -0.035646  -0.012922  -0.049769   0.384306   5.038880   0.357590
     6  C    0.344502  -0.047036  -0.007751  -0.050796   0.357590   5.144024
     7  H    0.004860  -0.039595   0.404005  -0.021758   0.004419  -0.000016
     8  H   -0.055894   0.361443  -0.045418  -0.002983  -0.000524  -0.001247
     9  H    0.371896  -0.047505  -0.004149  -0.000538  -0.002717  -0.043951
    10  H   -0.001553  -0.005742  -0.042375   0.368752  -0.043165  -0.004572
    11  H    0.000081   0.004737  -0.031367   0.362499  -0.035076   0.005517
    12  H    0.004550   0.000041   0.005864  -0.035735   0.358769  -0.032939
    13  H   -0.005107  -0.001434  -0.005068  -0.040050   0.365331  -0.038846
    14  H   -0.033692  -0.010145  -0.000100  -0.004733  -0.042503   0.371368
    15  H   -0.032611   0.005783  -0.000097   0.005102  -0.029686   0.363299
    16  H   -0.009317  -0.036641   0.365392  -0.037346  -0.005037  -0.000262
    17  N    0.290392  -0.063744   0.004304   0.000167   0.004741  -0.054214
    18  N   -0.063449   0.293096  -0.056280   0.004201   0.000100   0.005115
    19  C   -0.052689  -0.002878  -0.000030  -0.000108   0.001594  -0.023221
    20  H   -0.013734  -0.000625   0.000058  -0.000017  -0.000001   0.003649
    21  H    0.006793  -0.000050   0.000001   0.000002  -0.000053   0.001932
    22  H   -0.001903   0.002804  -0.000260   0.000074   0.000376  -0.014126
    23  C   -0.044120   0.005735  -0.000190  -0.000001   0.000060  -0.003354
    24  H   -0.006993   0.000260  -0.000029   0.000000   0.000015  -0.000035
    25  H   -0.003897  -0.000343   0.000037  -0.000005  -0.000298   0.002309
    26  C    0.006104  -0.000229   0.000001   0.000000   0.000002  -0.000211
    27  H   -0.000108  -0.000003  -0.000000  -0.000000  -0.000000   0.000011
    28  H   -0.000147   0.000006  -0.000000  -0.000000  -0.000000   0.000005
    29  H    0.000055  -0.000041   0.000001  -0.000000  -0.000000   0.000003
    30  C    0.004077  -0.055717   0.006300  -0.000147  -0.000014  -0.000121
    31  H    0.000034   0.005598  -0.000225   0.000005   0.000000  -0.000013
    32  H   -0.000304   0.001880  -0.000026   0.000000  -0.000000   0.000016
    33  H   -0.001167  -0.018794   0.000812  -0.000079  -0.000007   0.000136
    34  C    0.002278  -0.061818  -0.003381   0.001987  -0.000058  -0.000141
    35  H   -0.000215   0.007431  -0.000057  -0.000053   0.000000   0.000004
    36  H    0.001362  -0.008051  -0.001996   0.000400   0.000027  -0.000082
    37  C   -0.000022  -0.012407  -0.090444   0.000981  -0.000045   0.000042
    38  H    0.000016  -0.000226   0.007976  -0.000137   0.000004  -0.000000
    39  H   -0.000073   0.002171  -0.043288   0.001518  -0.000095  -0.000010
    40  H   -0.000351   0.007614  -0.038340   0.000947  -0.000121   0.000040
               7          8          9         10         11         12
     1  C    0.004860  -0.055894   0.371896  -0.001553   0.000081   0.004550
     2  C   -0.039595   0.361443  -0.047505  -0.005742   0.004737   0.000041
     3  C    0.404005  -0.045418  -0.004149  -0.042375  -0.031367   0.005864
     4  C   -0.021758  -0.002983  -0.000538   0.368752   0.362499  -0.035735
     5  C    0.004419  -0.000524  -0.002717  -0.043165  -0.035076   0.358769
     6  C   -0.000016  -0.001247  -0.043951  -0.004572   0.005517  -0.032939
     7  H    0.646816  -0.008454  -0.000175  -0.004834  -0.004002  -0.000178
     8  H   -0.008454   0.676032   0.006369   0.005453   0.000016  -0.000015
     9  H   -0.000175   0.006369   0.633960   0.000135  -0.000005  -0.000048
    10  H   -0.004834   0.005453   0.000135   0.634188  -0.034626  -0.004559
    11  H   -0.004002   0.000016  -0.000005  -0.034626   0.625118  -0.002248
    12  H   -0.000178  -0.000015  -0.000048  -0.004559  -0.002248   0.631662
    13  H    0.000009   0.000130   0.004783   0.006158  -0.004910  -0.034809
    14  H   -0.000040   0.003988   0.006048   0.005264  -0.000030  -0.004512
    15  H    0.000012  -0.000189  -0.006584  -0.000068  -0.000185  -0.002952
    16  H   -0.043099   0.006515   0.004978   0.006066  -0.004554   0.000004
    17  N   -0.000132  -0.005565  -0.043862  -0.000011   0.000004  -0.000150
    18  N    0.001495  -0.053664  -0.001002  -0.000075  -0.000124   0.000004
    19  C    0.000008   0.000997   0.006555  -0.000071   0.000001   0.000022
    20  H   -0.000001  -0.000073   0.000239  -0.000011  -0.000000   0.000117
    21  H   -0.000000  -0.000113  -0.000209   0.000001  -0.000000  -0.000001
    22  H    0.000011   0.003296  -0.000227  -0.000003  -0.000001  -0.000013
    23  C    0.000004  -0.000055  -0.011679  -0.000001  -0.000000  -0.000004
    24  H    0.000001   0.000033   0.006261  -0.000000   0.000000  -0.000000
    25  H   -0.000000   0.000001   0.001857  -0.000000   0.000000   0.000016
    26  C   -0.000000   0.000007   0.000489  -0.000000   0.000000  -0.000000
    27  H    0.000000  -0.000001  -0.000005  -0.000000  -0.000000   0.000000
    28  H    0.000000  -0.000000  -0.000023   0.000000  -0.000000   0.000000
    29  H   -0.000000   0.000001   0.000075  -0.000000   0.000000   0.000000
    30  C   -0.000204  -0.026349  -0.000099  -0.000023   0.000003   0.000000
    31  H   -0.000020  -0.000397   0.000036   0.000000  -0.000000   0.000000
    32  H   -0.000167   0.002433   0.000019   0.000001  -0.000000   0.000000
    33  H    0.000209   0.019275   0.000034  -0.000012   0.000002  -0.000000
    34  C   -0.027865   0.004164   0.000570   0.000028   0.000004   0.000001
    35  H    0.000916  -0.000257  -0.000047   0.000002   0.000000  -0.000000
    36  H   -0.000384  -0.000437   0.000046  -0.000018  -0.000025  -0.000000
    37  C   -0.033054   0.001399   0.000046   0.000011   0.000231   0.000001
    38  H    0.009482  -0.000169  -0.000000  -0.000012  -0.000003  -0.000000
    39  H   -0.022494   0.000048  -0.000002   0.000128   0.000133   0.000002
    40  H   -0.023842   0.003760   0.000023   0.000500   0.000030   0.000002
              13         14         15         16         17         18
     1  C   -0.005107  -0.033692  -0.032611  -0.009317   0.290392  -0.063449
     2  C   -0.001434  -0.010145   0.005783  -0.036641  -0.063744   0.293096
     3  C   -0.005068  -0.000100  -0.000097   0.365392   0.004304  -0.056280
     4  C   -0.040050  -0.004733   0.005102  -0.037346   0.000167   0.004201
     5  C    0.365331  -0.042503  -0.029686  -0.005037   0.004741   0.000100
     6  C   -0.038846   0.371368   0.363299  -0.000262  -0.054214   0.005115
     7  H    0.000009  -0.000040   0.000012  -0.043099  -0.000132   0.001495
     8  H    0.000130   0.003988  -0.000189   0.006515  -0.005565  -0.053664
     9  H    0.004783   0.006048  -0.006584   0.004978  -0.043862  -0.001002
    10  H    0.006158   0.005264  -0.000068   0.006066  -0.000011  -0.000075
    11  H   -0.004910  -0.000030  -0.000185  -0.004554   0.000004  -0.000124
    12  H   -0.034809  -0.004512  -0.002952   0.000004  -0.000150   0.000004
    13  H    0.627926   0.005890  -0.004644   0.005444  -0.000066  -0.000021
    14  H    0.005890   0.626736  -0.037531   0.000148  -0.011035  -0.000041
    15  H   -0.004644  -0.037531   0.610844  -0.000062  -0.000125  -0.000117
    16  H    0.005444   0.000148  -0.000062   0.632061  -0.000008  -0.006852
    17  N   -0.000066  -0.011035  -0.000125  -0.000008   6.913106  -0.002799
    18  N   -0.000021  -0.000041  -0.000117  -0.006852  -0.002799   6.911847
    19  C    0.000013  -0.001090  -0.008358  -0.000005   0.312481   0.000192
    20  H   -0.000040  -0.003971   0.000160   0.000000  -0.048503  -0.000019
    21  H    0.000002   0.000884  -0.000006   0.000000  -0.038991   0.000011
    22  H   -0.000021  -0.003294   0.001031   0.000002  -0.038723  -0.000008
    23  C   -0.000016   0.000017   0.002159  -0.000015   0.322657  -0.000444
    24  H   -0.000008  -0.000041   0.000033  -0.000004  -0.038493   0.001618
    25  H   -0.000002   0.000181   0.001659   0.000001  -0.054185   0.000044
    26  C    0.000000   0.000008  -0.000129   0.000000  -0.066245  -0.000069
    27  H   -0.000000  -0.000007  -0.000004  -0.000000  -0.000638  -0.000000
    28  H    0.000000   0.000001   0.000003   0.000000   0.003956  -0.000002
    29  H    0.000000   0.000004  -0.000003   0.000000   0.008223   0.000008
    30  C   -0.000000   0.000002   0.000003  -0.000121   0.004423   0.300681
    31  H    0.000000   0.000003  -0.000000   0.000009   0.002458  -0.048580
    32  H   -0.000000   0.000000  -0.000000   0.000039   0.000320  -0.041999
    33  H   -0.000000  -0.000054   0.000000   0.000011   0.000109  -0.040029
    34  C   -0.000014  -0.000002   0.000003  -0.005609   0.000256   0.349377
    35  H    0.000000   0.000000  -0.000000   0.000835   0.000007  -0.036462
    36  H   -0.000028  -0.000000   0.000002  -0.001561  -0.000014  -0.040506
    37  C   -0.000005  -0.000001  -0.000000  -0.003042  -0.000024  -0.069356
    38  H   -0.000000  -0.000000   0.000000  -0.000398  -0.000000   0.003457
    39  H    0.000002   0.000000  -0.000000   0.003280   0.000001   0.005240
    40  H    0.000002   0.000003  -0.000001   0.002430   0.000010  -0.016942
              19         20         21         22         23         24
     1  C   -0.052689  -0.013734   0.006793  -0.001903  -0.044120  -0.006993
     2  C   -0.002878  -0.000625  -0.000050   0.002804   0.005735   0.000260
     3  C   -0.000030   0.000058   0.000001  -0.000260  -0.000190  -0.000029
     4  C   -0.000108  -0.000017   0.000002   0.000074  -0.000001   0.000000
     5  C    0.001594  -0.000001  -0.000053   0.000376   0.000060   0.000015
     6  C   -0.023221   0.003649   0.001932  -0.014126  -0.003354  -0.000035
     7  H    0.000008  -0.000001  -0.000000   0.000011   0.000004   0.000001
     8  H    0.000997  -0.000073  -0.000113   0.003296  -0.000055   0.000033
     9  H    0.006555   0.000239  -0.000209  -0.000227  -0.011679   0.006261
    10  H   -0.000071  -0.000011   0.000001  -0.000003  -0.000001  -0.000000
    11  H    0.000001  -0.000000  -0.000000  -0.000001  -0.000000   0.000000
    12  H    0.000022   0.000117  -0.000001  -0.000013  -0.000004  -0.000000
    13  H    0.000013  -0.000040   0.000002  -0.000021  -0.000016  -0.000008
    14  H   -0.001090  -0.003971   0.000884  -0.003294   0.000017  -0.000041
    15  H   -0.008358   0.000160  -0.000006   0.001031   0.002159   0.000033
    16  H   -0.000005   0.000000   0.000000   0.000002  -0.000015  -0.000004
    17  N    0.312481  -0.048503  -0.038991  -0.038723   0.322657  -0.038493
    18  N    0.000192  -0.000019   0.000011  -0.000008  -0.000444   0.001618
    19  C    5.045335   0.357931   0.374145   0.388555  -0.058635   0.006770
    20  H    0.357931   0.647011  -0.044065  -0.044102  -0.011887  -0.000263
    21  H    0.374145  -0.044065   0.572485  -0.024841  -0.005133   0.000075
    22  H    0.388555  -0.044102  -0.024841   0.562408   0.007257  -0.000239
    23  C   -0.058635  -0.011887  -0.005133   0.007257   4.910281   0.387887
    24  H    0.006770  -0.000263   0.000075  -0.000239   0.387887   0.572548
    25  H   -0.013699   0.021367  -0.001595  -0.000394   0.347737  -0.046231
    26  C   -0.001717  -0.002798   0.006893   0.000047   0.371140  -0.032722
    27  H    0.000365   0.000786  -0.000064  -0.000021  -0.032287   0.004728
    28  H    0.000203   0.000035  -0.000017  -0.000005  -0.028105  -0.006537
    29  H   -0.002616   0.000899  -0.000117  -0.000192  -0.037149  -0.001684
    30  C    0.000033   0.000024  -0.000022  -0.000147  -0.000029  -0.000056
    31  H   -0.000046   0.000008  -0.000025  -0.000030   0.000017  -0.000091
    32  H   -0.000003   0.000000  -0.000001  -0.000003  -0.000002   0.000001
    33  H    0.000103   0.000004   0.000013   0.000285   0.000006   0.000012
    34  C   -0.000011   0.000001  -0.000000   0.000000  -0.000009  -0.000010
    35  H   -0.000000  -0.000000   0.000000  -0.000000   0.000000  -0.000002
    36  H    0.000000   0.000000  -0.000000  -0.000000   0.000004  -0.000005
    37  C    0.000001  -0.000000   0.000000   0.000002   0.000000   0.000002
    38  H    0.000000   0.000000  -0.000000  -0.000000   0.000000  -0.000000
    39  H   -0.000000   0.000000  -0.000000  -0.000000  -0.000000  -0.000000
    40  H   -0.000003   0.000000   0.000000  -0.000006  -0.000000   0.000000
              25         26         27         28         29         30
     1  C   -0.003897   0.006104  -0.000108  -0.000147   0.000055   0.004077
     2  C   -0.000343  -0.000229  -0.000003   0.000006  -0.000041  -0.055717
     3  C    0.000037   0.000001  -0.000000  -0.000000   0.000001   0.006300
     4  C   -0.000005   0.000000  -0.000000  -0.000000  -0.000000  -0.000147
     5  C   -0.000298   0.000002  -0.000000  -0.000000  -0.000000  -0.000014
     6  C    0.002309  -0.000211   0.000011   0.000005   0.000003  -0.000121
     7  H   -0.000000  -0.000000   0.000000   0.000000  -0.000000  -0.000204
     8  H    0.000001   0.000007  -0.000001  -0.000000   0.000001  -0.026349
     9  H    0.001857   0.000489  -0.000005  -0.000023   0.000075  -0.000099
    10  H   -0.000000  -0.000000  -0.000000   0.000000  -0.000000  -0.000023
    11  H    0.000000   0.000000  -0.000000  -0.000000   0.000000   0.000003
    12  H    0.000016  -0.000000   0.000000   0.000000   0.000000   0.000000
    13  H   -0.000002   0.000000  -0.000000   0.000000   0.000000  -0.000000
    14  H    0.000181   0.000008  -0.000007   0.000001   0.000004   0.000002
    15  H    0.001659  -0.000129  -0.000004   0.000003  -0.000003   0.000003
    16  H    0.000001   0.000000  -0.000000   0.000000   0.000000  -0.000121
    17  N   -0.054185  -0.066245  -0.000638   0.003956   0.008223   0.004423
    18  N    0.000044  -0.000069  -0.000000  -0.000002   0.000008   0.300681
    19  C   -0.013699  -0.001717   0.000365   0.000203  -0.002616   0.000033
    20  H    0.021367  -0.002798   0.000786   0.000035   0.000899   0.000024
    21  H   -0.001595   0.006893  -0.000064  -0.000017  -0.000117  -0.000022
    22  H   -0.000394   0.000047  -0.000021  -0.000005  -0.000192  -0.000147
    23  C    0.347737   0.371140  -0.032287  -0.028105  -0.037149  -0.000029
    24  H   -0.046231  -0.032722   0.004728  -0.006537  -0.001684  -0.000056
    25  H    0.678288  -0.051541  -0.007900   0.003158   0.007145   0.000013
    26  C   -0.051541   5.128505   0.379982   0.369138   0.368762  -0.000071
    27  H   -0.007900   0.379982   0.565552  -0.029381  -0.031136   0.000001
    28  H    0.003158   0.369138  -0.029381   0.566352  -0.025280   0.000001
    29  H    0.007145   0.368762  -0.031136  -0.025280   0.549298   0.000073
    30  C    0.000013  -0.000071   0.000001   0.000001   0.000073   5.025739
    31  H    0.000007  -0.000041  -0.000000   0.000003   0.000485   0.387793
    32  H    0.000000  -0.000002  -0.000000   0.000000   0.000004   0.359718
    33  H    0.000001  -0.000008  -0.000000  -0.000000   0.000005   0.370312
    34  C    0.000001  -0.000000  -0.000000   0.000000   0.000001  -0.057806
    35  H    0.000000  -0.000000   0.000000  -0.000000   0.000000  -0.006614
    36  H   -0.000000  -0.000000   0.000000   0.000000  -0.000000   0.007184
    37  C    0.000000  -0.000000  -0.000000  -0.000000  -0.000000  -0.009934
    38  H   -0.000000  -0.000000   0.000000   0.000000  -0.000000  -0.000126
    39  H    0.000000   0.000000   0.000000   0.000000   0.000000   0.000394
    40  H    0.000000   0.000000  -0.000000  -0.000000   0.000000   0.002291
              31         32         33         34         35         36
     1  C    0.000034  -0.000304  -0.001167   0.002278  -0.000215   0.001362
     2  C    0.005598   0.001880  -0.018794  -0.061818   0.007431  -0.008051
     3  C   -0.000225  -0.000026   0.000812  -0.003381  -0.000057  -0.001996
     4  C    0.000005   0.000000  -0.000079   0.001987  -0.000053   0.000400
     5  C    0.000000  -0.000000  -0.000007  -0.000058   0.000000   0.000027
     6  C   -0.000013   0.000016   0.000136  -0.000141   0.000004  -0.000082
     7  H   -0.000020  -0.000167   0.000209  -0.027865   0.000916  -0.000384
     8  H   -0.000397   0.002433   0.019275   0.004164  -0.000257  -0.000437
     9  H    0.000036   0.000019   0.000034   0.000570  -0.000047   0.000046
    10  H    0.000000   0.000001  -0.000012   0.000028   0.000002  -0.000018
    11  H   -0.000000  -0.000000   0.000002   0.000004   0.000000  -0.000025
    12  H    0.000000   0.000000  -0.000000   0.000001  -0.000000  -0.000000
    13  H    0.000000  -0.000000  -0.000000  -0.000014   0.000000  -0.000028
    14  H    0.000003   0.000000  -0.000054  -0.000002   0.000000  -0.000000
    15  H   -0.000000  -0.000000   0.000000   0.000003  -0.000000   0.000002
    16  H    0.000009   0.000039   0.000011  -0.005609   0.000835  -0.001561
    17  N    0.002458   0.000320   0.000109   0.000256   0.000007  -0.000014
    18  N   -0.048580  -0.041999  -0.040029   0.349377  -0.036462  -0.040506
    19  C   -0.000046  -0.000003   0.000103  -0.000011  -0.000000   0.000000
    20  H    0.000008   0.000000   0.000004   0.000001  -0.000000   0.000000
    21  H   -0.000025  -0.000001   0.000013  -0.000000   0.000000  -0.000000
    22  H   -0.000030  -0.000003   0.000285   0.000000  -0.000000  -0.000000
    23  C    0.000017  -0.000002   0.000006  -0.000009   0.000000   0.000004
    24  H   -0.000091   0.000001   0.000012  -0.000010  -0.000002  -0.000005
    25  H    0.000007   0.000000   0.000001   0.000001   0.000000  -0.000000
    26  C   -0.000041  -0.000002  -0.000008  -0.000000  -0.000000  -0.000000
    27  H   -0.000000  -0.000000  -0.000000  -0.000000   0.000000   0.000000
    28  H    0.000003   0.000000  -0.000000   0.000000  -0.000000   0.000000
    29  H    0.000485   0.000004   0.000005   0.000001   0.000000  -0.000000
    30  C    0.387793   0.359718   0.370312  -0.057806  -0.006614   0.007184
    31  H    0.565798  -0.037063  -0.036977   0.004013   0.000880  -0.000135
    32  H   -0.037063   0.604569  -0.024854  -0.012994   0.001175   0.000183
    33  H   -0.036977  -0.024854   0.582505   0.003577   0.000011  -0.000469
    34  C    0.004013  -0.012994   0.003577   4.947877   0.382874   0.395237
    35  H    0.000880   0.001175   0.000011   0.382874   0.578963  -0.030754
    36  H   -0.000135   0.000183  -0.000469   0.395237  -0.030754   0.579021
    37  C   -0.000387   0.005661   0.001237   0.306528  -0.046335  -0.059818
    38  H    0.000023  -0.001175  -0.000240  -0.023559  -0.007665   0.004231
    39  H   -0.000000  -0.000062  -0.000040  -0.025177   0.003207  -0.006299
    40  H   -0.000008   0.002210  -0.000242  -0.042430   0.002262   0.003678
              37         38         39         40
     1  C   -0.000022   0.000016  -0.000073  -0.000351
     2  C   -0.012407  -0.000226   0.002171   0.007614
     3  C   -0.090444   0.007976  -0.043288  -0.038340
     4  C    0.000981  -0.000137   0.001518   0.000947
     5  C   -0.000045   0.000004  -0.000095  -0.000121
     6  C    0.000042  -0.000000  -0.000010   0.000040
     7  H   -0.033054   0.009482  -0.022494  -0.023842
     8  H    0.001399  -0.000169   0.000048   0.003760
     9  H    0.000046  -0.000000  -0.000002   0.000023
    10  H    0.000011  -0.000012   0.000128   0.000500
    11  H    0.000231  -0.000003   0.000133   0.000030
    12  H    0.000001  -0.000000   0.000002   0.000002
    13  H   -0.000005  -0.000000   0.000002   0.000002
    14  H   -0.000001  -0.000000   0.000000   0.000003
    15  H   -0.000000   0.000000  -0.000000  -0.000001
    16  H   -0.003042  -0.000398   0.003280   0.002430
    17  N   -0.000024  -0.000000   0.000001   0.000010
    18  N   -0.069356   0.003457   0.005240  -0.016942
    19  C    0.000001   0.000000  -0.000000  -0.000003
    20  H   -0.000000   0.000000   0.000000   0.000000
    21  H    0.000000  -0.000000  -0.000000   0.000000
    22  H    0.000002  -0.000000  -0.000000  -0.000006
    23  C    0.000000   0.000000  -0.000000  -0.000000
    24  H    0.000002  -0.000000  -0.000000   0.000000
    25  H    0.000000  -0.000000   0.000000   0.000000
    26  C   -0.000000  -0.000000   0.000000   0.000000
    27  H   -0.000000   0.000000   0.000000  -0.000000
    28  H   -0.000000   0.000000   0.000000  -0.000000
    29  H   -0.000000  -0.000000   0.000000   0.000000
    30  C   -0.009934  -0.000126   0.000394   0.002291
    31  H   -0.000387   0.000023  -0.000000  -0.000008
    32  H    0.005661  -0.001175  -0.000062   0.002210
    33  H    0.001237  -0.000240  -0.000040  -0.000242
    34  C    0.306528  -0.023559  -0.025177  -0.042430
    35  H   -0.046335  -0.007665   0.003207   0.002262
    36  H   -0.059818   0.004231  -0.006299   0.003678
    37  C    5.393948   0.331080   0.390897   0.417581
    38  H    0.331080   0.609820  -0.029068  -0.033611
    39  H    0.390897  -0.029068   0.569555  -0.039196
    40  H    0.417581  -0.033611  -0.039196   0.555692
 Mulliken charges:
               1
     1  C    0.051975
     2  C    0.053903
     3  C   -0.301528
     4  C   -0.263609
     5  C   -0.258476
     6  C   -0.276617
     7  H    0.158068
     8  H    0.106445
     9  H    0.118407
    10  H    0.115044
    11  H    0.118780
    12  H    0.117108
    13  H    0.119399
    14  H    0.132278
    15  H    0.133259
    16  H    0.126719
    17  N   -0.400088
    18  N   -0.397646
    19  C   -0.330124
    20  H    0.137820
    21  H    0.152067
    22  H    0.162413
    23  C   -0.121845
    24  H    0.153200
    25  H    0.116269
    26  C   -0.475296
    27  H    0.150130
    28  H    0.146638
    29  H    0.163177
    30  C   -0.311465
    31  H    0.156870
    32  H    0.140425
    33  H    0.144312
    34  C   -0.137892
    35  H    0.149895
    36  H    0.159208
    37  C   -0.524770
    38  H    0.130302
    39  H    0.189228
    40  H    0.196019
 Sum of Mulliken charges =  -0.00000
 Mulliken charges with hydrogens summed into heavy atoms:
               1
     1  C    0.170382
     2  C    0.160348
     3  C   -0.016741
     4  C   -0.029785
     5  C   -0.021968
     6  C   -0.011080
    17  N   -0.400088
    18  N   -0.397646
    19  C    0.122176
    23  C    0.147624
    26  C   -0.015351
    30  C    0.130141
    34  C    0.171210
    37  C   -0.009222
 Electronic spatial extent (au):  <R**2>=           3231.9519
 Charge=             -0.0000 electrons
 Dipole moment (field-independent basis, Debye):
    X=              0.7998    Y=              0.6159    Z=              0.3272  Tot=              1.0612
 Quadrupole moment (field-independent basis, Debye-Ang):
   XX=            -87.8547   YY=            -93.5562   ZZ=            -89.1182
   XY=             -2.7521   XZ=             -0.2997   YZ=             -0.1339
 Traceless Quadrupole moment (field-independent basis, Debye-Ang):
   XX=              2.3216   YY=             -3.3798   ZZ=              1.0582
   XY=             -2.7521   XZ=             -0.2997   YZ=             -0.1339
 Octapole moment (field-independent basis, Debye-Ang**2):
  XXX=             -0.9777  YYY=            -15.8612  ZZZ=             -0.5558  XYY=              1.0706
  XXY=             -2.6202  XXZ=             -5.0309  XZZ=             -1.9697  YZZ=             -1.4199
  YYZ=              1.1925  XYZ=             -1.2773
 Hexadecapole moment (field-independent basis, Debye-Ang**3):
 XXXX=          -2558.3893 YYYY=          -1498.7623 ZZZZ=           -392.3442 XXXY=             -9.9099
 XXXZ=            -15.6179 YYYX=            -22.2565 YYYZ=              4.4033 ZZZX=             -1.4362
 ZZZY=              4.3828 XXYY=           -673.5063 XXZZ=           -483.5322 YYZZ=           -316.7469
 XXYZ=              5.5527 YYXZ=             -1.6413 ZZXY=              3.1280
 N-N= 1.058849675840D+03 E-N=-3.466720518173D+03  KE= 5.778619271718D+02
 D1PCM: PCM CHGder 1st derivatives, ID1Alg=3 FixD1E=F DoIter=F DoCFld=F I1PDM=0.
 Calling FoFJK, ICntrl=      2127 FMM=F ISym2X=0 I1Cent= 0 IOpClX= 0 NMat=1 NMatS=1 NMatT=0.
 ***** Axes restored to original set *****
 -------------------------------------------------------------------
 Center     Atomic                   Forces (Hartrees/Bohr)
 Number     Number              X              Y              Z
 -------------------------------------------------------------------
      1        6          -0.009133152   -0.000845968   -0.000029720
      2        6           0.002722929    0.001384803   -0.005825599
      3        6          -0.007562362    0.032814516    0.021121295
      4        6           0.007393134    0.014254794    0.010197089
      5        6          -0.014629321    0.021607430    0.007383863
      6        6          -0.011971202    0.018093963    0.011969401
      7        1          -0.068652479    0.024708046    0.022075259
      8        1          -0.008655370    0.012265995   -0.004286936
      9        1           0.009745920   -0.003379028    0.012532244
     10        1          -0.003564806    0.006304709   -0.009656873
     11        1          -0.002750235   -0.012645144    0.003619673
     12        1           0.001967185   -0.003954397   -0.012222877
     13        1           0.004012918   -0.004413143    0.011020343
     14        1          -0.003744427    0.019429195   -0.015117130
     15        1           0.013787020    0.000111406    0.003284798
     16        1          -0.000374195   -0.001948322    0.018456568
     17        7          -0.006566516   -0.002465596   -0.004508582
[...]
 32,-0.00022261,0.00019083,0.00006268,-0.00216557,-0.01413189,0.0031155
 2,0.00005196,0.00003048,-0.00008813,-0.00004170,0.00000972,0.00002329,
 0.00002055,0.00000798,-0.00000641,-0.00000354,-0.00000933,-0.00004037,
 0.00012882,-0.00000814,0.00009293,-0.00000644,0.00000830,-0.00001729,-
 0.00006674,0.00000884,0.00000371,-0.00000262,-0.00000477,-0.00002494,0
 .00000599,0.00000453,-0.00000260,-0.00002138,-0.00000362,-0.00000241,0
 .00000404,0.00000717,0.00002281,-0.00306324,0.00041630,0.00154958,0.00
 033445,-0.00087987,0.00052417,-0.00008448,0.00049120,0.00020950,0.0000
 9831,-0.00030260,0.00033135,0.05093604,-0.28723848,0.06183982,0.003541
 04,-0.01487422,0.00287479,-0.05517999,0.31673169,0.00021730,0.00005487
 ,0.00020656,-0.00108049,0.00108906,0.00053787,0.00096418,-0.00032776,-
 0.00171062,0.00006733,-0.00036172,-0.00007649,0.00007470,0.00008350,0.
 00011499,-0.00004147,0.00000455,-0.00008026,0.00025266,-0.00083281,-0.
 00196560,-0.00002573,-0.00030689,-0.00007033,-0.00000639,0.00000886,-0
 .00000946,-0.00006819,0.00006078,0.00018860,0.00000109,0.00003609,0.00
 000236,-0.00009393,-0.00000664,0.00001844,0.00000174,-0.00000693,-0.00
 001480,0.00001278,-0.00000884,0.00000441,-0.00004054,-0.00000669,0.000
 02446,0.00090841,-0.00068425,-0.00003303,-0.00005187,-0.00015591,-0.00
 007464,0.00060596,0.01732868,-0.00439122,-0.00002857,-0.00000593,0.000
 00185,0.00001219,-0.00000417,0.00000125,-0.00001780,-0.00002148,0.0000
 1142,-0.00000477,0.00002311,0.00000311,-0.00000558,-0.00004147,0.00003
 576,0.00000019,0.00000553,0.00000385,0.00000695,-0.00000119,-0.0000086
 7,-0.00002219,0.00001125,0.00000204,-0.00000090,-0.00000247,0.00000043
 ,0.00000030,-0.00000994,-0.00000364,0.00000475,-0.00000786,-0.00000910
 ,0.00313244,-0.00029918,-0.00135534,-0.00030093,0.00090271,0.00006543,
 -0.00034258,0.00013679,0.00053212,-0.00021713,-0.00000642,0.00022155,-
 0.01260270,0.05610023,-0.06527965,0.00530344,-0.02656351,0.00833401,0.
 01134105,-0.06376283,0.06883363,-0.00013524,0.00026142,0.00040832,0.00
 081634,-0.00115043,-0.00251639,-0.00012576,0.00045544,-0.00028940,0.00
 007504,0.00018294,-0.00010434,0.00001628,-0.00006798,0.00000564,-0.000
 18638,-0.00014362,-0.00001065,-0.00083673,0.00075084,0.00047634,-0.000
 01673,0.00012793,0.00045481,0.00012372,-0.00004187,0.00002610,0.000022
 29,-0.00003138,-0.00002254,-0.00002196,0.00006091,0.00003605,0.0000074
 8,0.00003351,0.00001417,0.00000790,0.00000970,-0.00000875,-0.00001198,
 0.00001319,0.00003346,-0.00006779,0.00005327,0.00007951,-0.00036250,0.
 00000310,0.00003160,-0.00018856,0.00008988,0.00011457,-0.03310310,-0.0
 0770541,-0.00426365,0.00000642,0.00005655,-0.00012431,-0.00004660,-0.0
 0000470,0.00005690,0.00000241,-0.00001893,0.00001201,0.00000970,0.0000
 0982,-0.00003267,0.00018375,0.00001187,0.00009584,0.00000567,-0.000001
 05,0.00000217,-0.00008243,0.00000180,0.00000946,-0.00002162,0.00000570
 ,-0.00001377,0.00000268,-0.00000590,0.00000224,-0.00002163,-0.00001211
 ,-0.00000679,0.00000800,0.00000758,0.00001336,-0.00052241,0.00143512,0
 .00121064,-0.00003221,0.00035884,-0.00033052,0.00028304,-0.00050027,-0
 .00008185,-0.00035428,-0.00129903,-0.00014379,-0.14030182,0.00995208,-
 0.04661368,0.00085384,0.00116958,-0.00135910,-0.00802977,0.00073190,-0
 .00598048,0.48173774,0.00007546,0.00040346,0.00023999,0.00087810,-0.00
 113764,-0.00078279,-0.00004654,-0.00085700,0.00064637,0.00004851,0.000
 16665,-0.00005434,0.00000079,-0.00008301,-0.00004172,-0.00017873,-0.00
 014263,-0.00002811,0.00126557,-0.00055187,-0.00005761,-0.00006376,0.00
 035160,0.00009206,-0.00002674,-0.00003267,-0.00004116,0.00002707,-0.00
 000549,-0.00014451,-0.00002459,0.00005839,0.00003235,0.00001894,0.0000
 3077,0.00000007,-0.00002939,0.00001481,-0.00001735,0.00000194,0.000017
 89,0.00001169,-0.00006425,0.00005557,0.00006714,-0.00000039,0.00021137
 ,-0.00046388,-0.00002261,-0.00003693,0.00002364,-0.01603323,0.00155886
 ,-0.00419032,-0.00000734,0.00004178,-0.00006318,-0.00001105,-0.0000090
 0,0.00003358,-0.00002226,-0.00003194,0.00000953,0.00000129,0.00004171,
 -0.00000470,0.00009543,-0.00002453,0.00005289,0.00000736,-0.00000629,0
 .00000642,-0.00003299,-0.00000080,0.00000467,-0.00002538,0.00000879,-0
 .00000215,-0.00000213,-0.00000570,0.00000511,-0.00000904,-0.00001327,-
 0.00000628,0.00000576,0.00000438,-0.00000383,-0.00250004,0.00238293,-0
 .00230471,0.00026635,-0.00028886,0.00030951,-0.00020949,-0.00016169,-0
 .00031479,0.00044950,0.00036903,0.00054109,0.00894730,-0.08582377,0.00
 554460,-0.01452536,0.00169076,-0.01066969,0.02775212,-0.00010475,0.017
 81847,0.00052875,0.57555985,0.00028909,-0.00029836,-0.00083454,0.00046
 361,0.00125638,0.00452060,0.00006506,0.00040895,-0.00066892,-0.0001620
 8,-0.00018598,-0.00003297,0.00001382,0.00010506,0.00003776,0.00032285,
 0.00013717,0.00004504,0.00072995,-0.00114044,0.00008197,-0.00067141,0.
 00044627,-0.00034590,-0.00012878,-0.00001061,-0.00005882,0.00004945,0.
 00001715,-0.00004572,0.00001854,-0.00004460,-0.00002899,-0.00005096,-0
 .00003315,0.00001793,-0.00001732,-0.00001249,-0.00000062,0.00000746,-0
 .00000229,-0.00003392,0.00005899,-0.00007973,-0.00010614,-0.00037994,0
 .00004160,0.00004952,0.00007145,-0.00014019,-0.00013393,0.01690007,-0.
 00047274,0.01269933,0.00002127,-0.00005626,0.00011702,0.00002724,0.000
 00166,-0.00004354,-0.00000877,0.00000680,-0.00000704,-0.00001173,0.000
 01308,0.00000726,-0.00012795,-0.00000860,-0.00006636,-0.00000219,-0.00
 000171,0.00000524,0.00005445,-0.00000235,-0.00000341,0.00001174,-0.000
 00196,0.00001342,-0.00000311,0.00000187,0.00000003,0.00001445,0.000006
 53,0.00000204,-0.00000495,-0.00000474,-0.00001246,0.00192491,-0.002010
 42,0.00091864,-0.00009766,0.00053487,0.00008412,-0.00007613,0.00027405
 ,-0.00033128,-0.00034304,-0.00027162,-0.00013775,-0.04392063,0.0053549
 5,-0.11569544,-0.02677497,0.00271021,-0.01731543,-0.00679120,-0.000297
 11,-0.00384605,-0.04453733,-0.00079375,0.55775775,0.00004093,0.0000404
 9,0.00001340,-0.00017422,0.00012031,0.00008208,0.00003060,0.00024185,-
 0.00023918,-0.00002455,-0.00010389,0.00000016,0.00001436,0.00003522,0.
 00002516,-0.00000206,0.00000246,-0.00001421,-0.00009285,-0.00019830,-0
 .00011955,-0.00004743,-0.00000482,0.00011709,0.00002029,-0.00000711,0.
 00001777,-0.00000930,0.00001076,0.00005329,0.00000143,0.00000187,-0.00
 000447,-0.00002607,-0.00000542,0.00000812,0.00000674,-0.00000750,0.000
 00139,0.00000312,-0.00000204,0.00000802,-0.00000587,-0.00000493,0.0000
 0118,-0.00001676,-0.00008424,0.00017281,0.00011019,-0.00011590,-0.0000
 5300,0.00168893,-0.00063138,0.00067293,-0.00003095,-0.00001144,0.00001
 991,0.00001719,-0.00000384,-0.00000313,-0.00001381,-0.00000851,0.00000
 560,0.00000152,0.00001425,0.00001531,-0.00004290,-0.00001460,-0.000029
 56,0.00000527,-0.00000371,0.00000976,0.00002383,-0.00000358,-0.0000006
 5,-0.00000586,0.00000448,0.00000961,-0.00000288,-0.00000330,0.00000235
 ,0.00000692,-0.00000189,-0.00000038,-0.00000036,-0.00000170,-0.0000102
 8,-0.00039749,0.00016961,0.00020345,0.00008940,-0.00017185,0.00014650,
 -0.00014313,-0.00011898,-0.00026126,-0.00078677,-0.00099690,0.00073449
 ,-0.00656089,0.02987861,-0.00496284,0.00123798,-0.00069873,0.00072391,
 -0.00487855,-0.00008590,-0.00342079,-0.06983451,0.07058538,-0.01120785
 ,0.07347830,-0.00006146,-0.00006515,-0.00005729,-0.00002621,0.00000537
 ,0.00028672,-0.00027393,-0.00012317,0.00008173,0.00007068,0.00005479,0
 .00007331,-0.00001823,-0.00002668,-0.00003936,0.00002765,0.00001260,0.
 00002008,0.00012953,0.00016701,0.00006777,-0.00004678,0.00000877,-0.00
 012277,-0.00002029,0.00000825,-0.00001306,-0.00000354,-0.00000678,-0.0
 0002706,-0.00000218,-0.00000209,-0.00000353,0.00003522,0.00000141,-0.0
 0001160,-0.00000259,0.00000396,0.00000267,-0.00000180,-0.00000007,-0.0
 0001234,0.00001969,-0.00000016,-0.00001154,0.00010185,0.00002094,-0.00
 005308,-0.00004330,0.00008799,0.00002560,0.00065170,0.00026473,0.00004
 636,0.00002645,-0.00000431,0.00001451,-0.00000652,0.00000253,-0.000005
 84,0.00001047,0.00001459,-0.00000548,0.00000003,-0.00001790,-0.0000050
 5,-0.00000026,0.00001781,0.00000283,-0.00000447,0.00000299,-0.00000876
 ,-0.00000622,0.00000164,0.00000038,0.00001060,-0.00000591,-0.00000258,
 0.00000240,0.00000453,-0.00000318,-0.00000098,0.00000445,0.00000184,-0
 .00000197,0.00000024,0.00000620,-0.00044712,-0.00109534,0.00102964,-0.
 00024969,0.00034986,-0.00034623,-0.00001201,-0.00005939,0.00007186,-0.
 00130593,-0.00019470,-0.00071747,0.00007533,0.00049954,0.00032997,0.00
 028865,0.00068393,0.00047866,-0.00017497,0.00146412,0.00002250,0.07113
 000,-0.28608143,0.03821221,-0.07673480,0.31079091,-0.00000718,0.000056
 78,0.00001188,0.00010958,-0.00028269,-0.00007854,-0.00026420,-0.000151
 43,0.00004944,0.00010896,0.00000532,0.00010836,-0.00000098,-0.00002909
 ,-0.00004298,-0.00002364,-0.00002305,0.00000632,0.00004261,0.00033079,
 -0.00003122,-0.00004335,0.00000052,0.00003727,0.00000646,0.00000041,0.
 00000226,-0.00002506,0.00000131,0.00001685,-0.00000658,0.00000743,-0.0
 0000510,0.00002134,0.00000484,-0.00000465,0.00000284,0.00000022,0.0000
 0065,0.00000032,0.00000140,-0.00000116,-0.00000531,0.00001073,0.000005
 71,0.00025478,-0.00003746,0.00006243,0.00000909,0.00000050,-0.00000306
 ,0.00067486,-0.00042066,0.00024026,0.00001842,0.00000278,0.00000328,-0
 .00000787,0.00000046,0.00000026,0.00000081,-0.00000107,0.00000193,0.00
 000113,-0.00000281,-0.00000627,0.00001653,0.00001101,-0.00000057,-0.00
 000002,-0.00000147,0.00000104,-0.00000561,-0.00000173,0.00000248,-0.00
 000379,0.00000036,0.00000230,0.00000092,-0.00000060,0.00000028,-0.0000
 0186,-0.00000054,-0.00000151,0.00000137,0.00000095,0.00000006,0.000307
 46,-0.00000290,0.00085294,0.00002205,-0.00014531,-0.00012221,-0.000123
 90,-0.00015453,-0.00026183,0.00023928,0.00002206,-0.00002900,-0.004029
 84,0.01754017,-0.00403555,0.00072864,0.00023080,0.00052645,-0.00367865
 ,-0.00033890,-0.00112413,-0.01126038,0.03813903,-0.05622536,0.01471868
 ,-0.04317184,0.05693896,0.00001923,0.00020845,0.00036601,0.00064023,-0
 .00089311,-0.00193492,-0.00002297,-0.00002579,0.00019267,0.00001864,0.
 00004870,-0.00008770,0.00001531,-0.00002784,0.00003308,-0.00016580,-0.
 00010883,-0.00004837,-0.00004974,-0.00006111,0.00002246,0.00021334,-0.
 00002185,0.00033464,0.00005592,-0.00001786,0.00000814,-0.00000398,-0.0
 0000680,-0.00000095,-0.00002400,0.00008010,0.00004185,-0.00001918,0.00
 002726,0.00001453,-0.00000233,0.00000635,-0.00001573,-0.00000168,0.000
 00995,0.00001932,-0.00006267,0.00004693,0.00006588,-0.00006047,0.00000
 522,-0.00005125,-0.00012209,0.00001606,0.00006014,-0.00686814,-0.00044
 175,-0.00366214,0.00000341,0.00003903,-0.00009220,-0.00002989,-0.00000
 070,0.00003792,-0.00000229,-0.00002022,0.00000905,0.00000237,0.0000157
 5,-0.00002246,0.00013164,-0.00001326,0.00006471,0.00000601,-0.00000136
 ,0.00000231,-0.00005419,0.00000208,0.00000810,-0.00001984,0.00000458,-
 0.00001095,0.00000166,-0.00000550,0.00000334,-0.00001757,-0.00001082,-
 0.00000713,0.00000648,0.00000683,0.00000829,-0.00045075,0.00241591,-0.
 00087729,0.00010869,-0.00030361,0.00018509,0.00005249,-0.00014909,-0.0
 0003276,0.00070117,0.00002464,0.00051386,-0.01786413,-0.01317812,0.018
 87672,0.00108081,-0.00034616,-0.00029283,0.00092949,0.00077682,0.00047
 679,-0.17982793,-0.08361226,0.10064582,0.00767472,0.00367959,-0.005937
 27,0.19510916,-0.00002038,-0.00002460,0.00006494,-0.00015875,-0.000043
 67,-0.00017109,-0.00002622,-0.00008592,-0.00000468,0.00003374,0.000019
 45,0.00000858,0.00000561,-0.00001481,-0.00000691,-0.00001955,-0.000009
 38,-0.00000944,0.00001274,0.00010225,-0.00001438,-0.00002395,-0.000039
 60,0.00005838,0.00001964,0.00000636,-0.00001076,-0.00000569,0.00000129
 ,0.00001196,0.00000275,-0.00000011,0.00000220,0.00000276,0.00000459,0.
 00000190,0.00000149,0.00000080,-0.00000179,-0.00000108,0.00000003,0.00
 000206,-0.00000635,0.00000467,0.00000807,0.00003387,-0.00000701,0.0000
 3158,-0.00009758,0.00005349,0.00004518,0.00034615,0.00057372,0.0003813
 3,0.00001032,0.00001482,-0.00002968,-0.00001250,0.00000082,0.00000912,
 0.00000666,-0.00000206,0.00000018,0.00000033,-0.00000560,-0.00000944,0
 .00004340,0.00000656,0.00002426,-0.00000125,0.00000122,-0.00000239,-0.
 00002079,0.00000148,0.00000147,-0.00000206,-0.00000073,-0.00000552,0.0
 0000148,-0.00000055,0.00000020,-0.00000630,-0.00000129,-0.00000162,0.0
 0000179,0.00000156,0.00000516,-0.00004297,-0.00005332,0.00041628,-0.00
 010656,0.00021179,-0.00019156,0.00005677,0.00002057,0.00012884,-0.0000
 2844,0.00011826,-0.00046018,0.00295056,-0.00003945,-0.00134254,-0.0001
 4654,-0.00007161,-0.00012153,-0.00013843,0.00047176,-0.00039542,-0.083
 71402,-0.10146011,0.06308010,-0.02324204,-0.01321748,0.01736885,0.0917
 3376,0.10564088,-0.00007942,0.00010718,0.00026195,-0.00032699,-0.00033
 583,-0.00089920,-0.00015212,-0.00014471,0.00004800,0.00006039,0.000076
 70,0.00001797,-0.00000269,-0.00003861,-0.00002784,-0.00008958,-0.00002
 491,-0.00001283,0.00016981,0.00021428,-0.00003792,-0.00004121,-0.00009
 038,0.00022040,0.00005629,0.00000324,0.00000243,-0.00000696,0.00000661
 ,0.00002026,0.00000521,-0.00001786,0.00000661,0.00002165,0.00000395,-0
 .00000666,0.00000500,0.00000092,0.00000423,-0.00000480,-0.00000099,0.0
 0001187,-0.00000970,0.00001589,0.00002484,0.00007770,-0.00002275,0.000
 03459,0.00004733,0.00001448,0.00000967,-0.00356761,0.00005134,-0.00052
 672,-0.00002736,0.00000545,-0.00001709,0.00000641,-0.00000145,0.000005
 16,-0.00000080,-0.00000027,0.00000114,0.00000373,-0.00000054,0.0000082
 5,-0.00000328,-0.00000126,-0.00000402,0.00000246,-0.00000055,0.0000015
 1,0.00000345,-0.00000021,-0.00000103,0.00000044,0.00000027,0.00000036,
 -0.00000110,-0.00000060,0.00000039,0.00000160,-0.00000005,0.00000144,-
 0.00000012,0.00000046,-0.00000085,-0.00031754,0.00065462,-0.00038250,0
 .00006611,-0.00010973,0.00009876,0.00003809,-0.00004777,0.00004686,0.0
 0020996,-0.00017036,0.00022404,-0.01216589,-0.00857298,0.01009630,0.00
 094087,-0.00019356,0.00051899,0.00074250,0.00005688,0.00075895,0.10116
 629,0.06339945,-0.12602568,0.00252314,0.00143289,-0.00299856,-0.109660
 75,-0.07067081,0.13344471,-0.00018012,0.00002911,0.00004400,-0.0001513
 2,-0.00029087,0.00034724,-0.00102388,0.00011840,-0.00010865,0.00013777
 ,0.00008105,0.00014929,-0.00001206,-0.00005232,-0.00008985,0.00000568,
 -0.00000313,0.00002947,-0.00104625,0.00132379,-0.00016551,-0.00040558,
 0.00003473,0.00024817,0.00004583,-0.00000909,-0.00000421,-0.00000967,0
 .00001910,0.00000625,0.00000691,-0.00003931,-0.00000761,0.00005388,-0.
 00000048,-0.00001401,0.00000544,-0.00000148,0.00001069,-0.00000660,-0.
 00000027,-0.00000202,0.00002062,0.00000046,-0.00001200,0.00021711,-0.0
 0006452,0.00007352,0.00009570,0.00006362,0.00002930,0.00233967,0.00049
 979,0.00171017,-0.00000849,-0.00000545,0.00001573,0.00000802,0.0000004
 9,-0.00000683,0.00000414,0.00001114,-0.00000478,0.00000465,-0.00000899
 ,0.00001028,-0.00002967,0.00002241,-0.00004636,0.00000300,-0.00000538,
 0.00000110,0.00001529,0.00000026,0.00000447,0.00001813,-0.00000715,0.0
 0000235,-0.00000245,0.00000111,0.00000155,0.00000502,0.00000698,0.0000
 0347,-0.00000448,0.00000466,-0.00000039,0.00006228,-0.00030294,0.00010
 172,0.00000100,-0.00000859,0.00003593,-0.00003035,0.00015310,-0.000047
 68,-0.00011215,-0.00017746,-0.00009753,0.00415529,-0.01473839,-0.02747
 872,-0.00512431,0.00052556,-0.00385991,0.00099718,0.00020158,0.0009687
 8,-0.05003037,0.00649196,0.01362777,-0.00135452,0.00318545,0.00813936,
 -0.00110114,0.01255764,0.02030949,0.05243083,-0.00003525,-0.00012756,0
 .00008616,-0.00016192,0.00012558,-0.00057956,0.00060250,-0.00022817,0.
 00016658,0.00000424,0.00000690,0.00000128,-0.00000316,-0.00000493,0.00
 000244,-0.00000693,0.00001861,0.00000115,0.00118707,-0.00044557,-0.000
 01670,-0.00000530,-0.00009146,0.00032970,0.00006101,0.00000874,0.00001
 231,-0.00000931,0.00000894,0.00003159,0.00001393,-0.00002180,-0.000000
 87,0.00000107,-0.00000205,-0.00000340,0.00000521,-0.00000324,0.0000052
 6,-0.00000484,-0.00000371,0.00001252,0.00000625,-0.00000680,0.00000010
 ,0.00007691,-0.00005340,0.00001156,-0.00000432,0.00002571,0.00002081,-
 0.00021450,-0.00002726,-0.00024188,-0.00003226,0.00000345,-0.00002813,
 0.00000534,0.00000040,0.00000654,0.00000274,0.00000322,-0.00000142,0.0
 0000294,-0.00000420,0.00000904,-0.00001041,-0.00000624,-0.00001147,0.0
 0000377,-0.00000222,0.00000226,0.00000219,0.00000211,0.00000138,0.0000
 0757,-0.00000196,-0.00000377,-0.00000189,-0.00000147,0.00000194,0.0000
 0164,0.00000193,0.00000184,-0.00000267,0.00000281,0.00000154,-0.000222
 38,0.00001344,-0.00039139,-0.00000606,-0.00000226,0.00010131,0.0000639
 8,0.00009820,0.00018921,0.00015109,-0.00009546,0.00012227,-0.00113281,
 0.00056443,0.00191737,0.00029649,0.00105641,0.00030827,-0.00054032,0.0
 0032914,0.00013334,0.00725497,-0.10610921,-0.10673985,0.00216200,-0.01
 357239,-0.02897065,0.00009798,0.00782090,0.01440156,-0.00961655,0.1107
 2041,-0.00007757,0.00006577,0.00014660,-0.00014362,-0.00072149,-0.0003
 1111,-0.00032149,-0.00066972,0.00025010,0.00028427,0.00014511,0.000231
 33,-0.00002088,-0.00009411,-0.00014540,-0.00007455,-0.00003244,0.00001
 854,0.00037736,0.00059865,0.00023082,0.00001012,0.00000194,0.00037068,
 0.00004777,0.00001191,-0.00001234,-0.00003010,-0.00000096,-0.00002512,
 -0.00001449,0.00000929,0.00000185,0.00008404,0.00001235,-0.00002082,-0
 .00000013,0.00000207,0.00000963,-0.00000588,0.00000270,0.00000106,0.00
 000825,0.00002845,0.00001347,0.00037674,-0.00003390,0.00001779,0.00003
 591,0.00008889,0.00005316,-0.00021600,0.00041600,0.00173239,0.00000336
 ,0.00000983,-0.00002123,-0.00000659,0.00000098,0.00000717,0.00000510,0
 .00000898,-0.00000422,0.00000640,-0.00001063,0.00000326,0.00000588,0.0
 0001784,-0.00002894,0.00000442,-0.00000874,0.00000025,-0.00000607,0.00
 000234,0.00000990,0.00001692,-0.00000691,-0.00000394,-0.00000234,-0.00
 000032,0.00000319,0.00000044,0.00000512,0.00000182,-0.00000488,0.00000
 889,0.00000455,-0.00033381,0.00008729,0.00002880,0.00002451,-0.0000590
 6,0.00001063,0.00004187,0.00012808,0.00004571,0.00002309,-0.00014755,0
 .00001346,0.00287198,-0.00697495,-0.01493352,-0.00352456,0.00061686,-0
 .00046138,0.00024260,0.00016512,0.00014992,0.01345090,-0.10699280,-0.2
 5435738,0.00004104,0.00241031,0.00610028,0.00074399,-0.00820091,-0.014
 92879,-0.01392401,0.11910974,0.27579779\\-0.00000008,0.00000794,-0.000
 01164,0.00000340,0.00000786,0.00001792,0.00001002,-0.00000367,-0.00001
 148,0.00000263,0.00000714,0.00000924,-0.00000074,0.00001380,-0.0000049
 1,-0.00000472,-0.00000482,0.00001293,0.00000144,0.00000198,-0.00000456
 ,-0.00000306,0.00000147,-0.00000390,-0.00000338,-0.00000225,0.00000472
 ,-0.00000152,0.00000293,-0.00000594,-0.00000104,-0.00000427,-0.0000024
 0,0.00000126,-0.00000184,-0.00000371,0.00000179,-0.00000114,0.00000362
 ,-0.00000383,0.00000481,-0.00000617,0.00000613,0.00000442,-0.00000218,
 0.00000046,-0.00000052,0.00000129,0.00000928,-0.00000616,-0.00000348,-
 0.00000867,-0.00001261,-0.00002435,-0.00001245,0.00000821,-0.00000650,
 -0.00000492,0.00000350,0.00000798,-0.00000253,-0.00001424,-0.00000191,
 0.00000106,0.00000036,0.00000645,0.00001195,-0.00000817,0.00000285,0.0
 0000006,0.00000296,-0.00000527,-0.00000876,0.00000369,0.00000885,0.000
 00163,0.00001081,0.00001114,0.00000087,-0.00000753,0.00001048,-0.00000
 676,-0.00000165,-0.00000114,0.00000595,-0.00000459,-0.00000133,-0.0000
 0113,0.00000015,-0.00000316,0.00000855,0.00000025,-0.00000043,0.000001
 50,-0.00000387,-0.00000744,0.00000244,-0.00000405,0.00000874,-0.000010
 44,-0.00000326,0.00000218,-0.00000160,-0.00000085,-0.00000456,-0.00000
 052,0.00000164,-0.00000193,-0.00000650,-0.00000221,0.00000745,0.000002
 79,-0.00000554,0.00000129,0.00000766,0.00000304,-0.00000211,0.00000179
 ,0.00000631,0.00000333\\\@
 The archive entry for this job was punched.


 KINETICS       FACT
 ---------  =  -------
 MECHANISM     FICTION
 Job cpu time:       0 days  1 hours 29 minutes  7.6 seconds.
 Elapsed time:       0 days  0 hours  5 minutes 36.8 seconds.
 File lengths (MBytes):  RWF=    435 Int=      0 D2E=      0 Chk=     17 Scr=      1
 Normal termination of Gaussian 16 at Sun Oct 24 19:42:00 2021.
