 Entering Gaussian System, Link 0=/home/rong/g16/g16
 Input=/home/rong/g16/092821/benzNCHCH3.gjf
 Output=/home/rong/g16/092821/benzNCHCH3.log
 Initial command:
 /home/rong/g16/l1.exe "/tmp/Gau-141856.inp" -scrdir="/tmp/"
 Default is to use a total of   8 processors:
                                8 via shared-memory
                                1 via Linda
 Entering Link 1 = /home/rong/g16/l1.exe PID=    141858.
  
 Copyright (c) 1988-2019, Gaussian, Inc.  All Rights Reserved.
  
 This is part of the Gaussian(R) 16 program.  It is based on
 the Gaussian(R) 09 system (copyright 2009, Gaussian, Inc.),
 the Gaussian(R) 03 system (copyright 2003, Gaussian, Inc.),
 the Gaussian(R) 98 system (copyright 1998, Gaussian, Inc.),
 the Gaussian(R) 94 system (copyright 1995, Gaussian, Inc.),
 the Gaussian 92(TM) system (copyright 1992, Gaussian, Inc.),
 the Gaussian 90(TM) system (copyright 1990, Gaussian, Inc.),
 the Gaussian 88(TM) system (copyright 1988, Gaussian, Inc.),
 the Gaussian 86(TM) system (copyright 1986, Carnegie Mellon
 University), and the Gaussian 82(TM) system (copyright 1983,
 Carnegie Mellon University). Gaussian is a federally registered
 trademark of Gaussian, Inc.
  
 This software contains proprietary and confidential information,
 including trade secrets, belonging to Gaussian, Inc.
  
 This software is provided under written license and may be
 used, copied, transmitted, or stored only in accord with that
 written license.
  
 The following legend is applicable only to US Government
 contracts under FAR:
  
                    RESTRICTED RIGHTS LEGEND
  
 Use, reproduction and disclosure by the US Government is
 subject to restrictions as set forth in subparagraphs (a)
 and (c) of the Commercial Computer Software - Restricted
 Rights clause in FAR 52.227-19.
  
 Gaussian, Inc.
 340 Quinnipiac St., Bldg. 40, Wallingford CT 06492
  
  
 ---------------------------------------------------------------
 Warning -- This program may not be used in any manner that
 competes with the business of Gaussian, Inc. or will provide
 assistance to any competitor of Gaussian, Inc.  The licensee
 of this program is prohibited from giving any competitor of
 Gaussian, Inc. access to this program.  By using this program,
 the user acknowledges that Gaussian, Inc. is engaged in the
 business of creating and licensing software in the field of
 computational chemistry and represents and warrants to the
 licensee that it is not a competitor of Gaussian, Inc. and that
 it will not use this program in any manner prohibited above.
 ---------------------------------------------------------------
  

 Cite this work as:
 Gaussian 16, Revision C.01,
 M. J. Frisch, G. W. Trucks, H. B. Schlegel, G. E. Scuseria, 
 M. A. Robb, J. R. Cheeseman, G. Scalmani, V. Barone, 
 G. A. Petersson, H. Nakatsuji, X. Li, M. Caricato, A. V. Marenich, 
 J. Bloino, B. G. Janesko, R. Gomperts, B. Mennucci, H. P. Hratchian, 
 J. V. Ortiz, A. F. Izmaylov, J. L. Sonnenberg, D. Williams-Young, 
 F. Ding, F. Lipparini, F. Egidi, J. Goings, B. Peng, A. Petrone, 
 T. Henderson, D. Ranasinghe, V. G. Zakrzewski, J. Gao, N. Rega, 
 G. Zheng, W. Liang, M. Hada, M. Ehara, K. Toyota, R. Fukuda, 
 J. Hasegawa, M. Ishida, T. Nakajima, Y. Honda, O. Kitao, H. Nakai, 
 T. Vreven, K. Throssell, J. A. Montgomery, Jr., J. E. Peralta, 
 F. Ogliaro, M. J. Bearpark, J. J. Heyd, E. N. Brothers, K. N. Kudin, 
 V. N. Staroverov, T. A. Keith, R. Kobayashi, J. Normand, 
 K. Raghavachari, A. P. Rendell, J. C. Burant, S. S. Iyengar, 
 J. Tomasi, M. Cossi, J. M. Millam, M. Klene, C. Adamo, R. Cammi, 
 J. W. Ochterski, R. L. Martin, K. Morokuma, O. Farkas, 
 J. B. Foresman, and D. J. Fox, Gaussian, Inc., Wallingford CT, 2019.
 
 ******************************************
 Gaussian 16:  ES64L-G16RevC.01  3-Jul-2019
                29-Sep-2021 
 ******************************************
 %mem=15GB
 %chk=benzNCHCH3.chk
 %nprocshared=8
 Will use up to    8 processors via shared memory.
 ----------------------------------------------------
 # opt freq b3lyp/6-31g(d) scrf=(smd,solvent=toluene)
 ----------------------------------------------------
 1/18=20,19=15,26=3,38=1/1,3;
 2/9=110,12=2,17=6,18=5,40=1/2;
 3/5=1,6=6,7=1,11=2,25=1,30=1,70=32201,71=1,72=13,74=-5/1,2,3;
 4//1;
 5/5=2,38=5,53=13/2;
 6/7=2,8=2,9=2,10=2,28=1/1;
 7//1,2,3,16;
 1/18=20,19=15,26=3/3(2);
 2/9=110/2;
 99//99;
 2/9=110/2;
 3/5=1,6=6,7=1,11=2,25=1,30=1,70=32205,71=1,72=13,74=-5/1,2,3;
 4/5=5,16=3,69=1/1;
 5/5=2,38=5,53=13/2;
 7//1,2,3,16;
 1/18=20,19=15,26=3/3(-5);
 2/9=110/2;
 6/7=2,8=2,9=2,10=2,19=2,28=1/1;
 99/9=1/99;
 ----------
 benzNCHCH3
 ----------
 Symbolic Z-matrix:
 Charge =  0 Multiplicity = 1
 C                    -0.32353   0.39706   0. 
 C                     1.07163   0.39706   0. 
 C                     1.76917   1.60481   0. 
 C                     1.07151   2.81332  -0.0012 
 C                    -0.32331   2.81324  -0.00168 
 C                    -1.02091   1.60503  -0.00068 
 H                     2.86885   1.60489   0.00063 
 H                     1.62171   3.76546  -0.00126 
 H                    -0.87343   3.76552  -0.00263 
 H                    -2.12052   1.60522  -0.00086 
 N                    -1.05847  -0.87603   0.0006 
 N                     1.8062   -0.87624   0.00176 
 C                    -1.38249  -1.43529   1.12116 
 H                    -1.48091  -2.49928   1.17717 
 C                     3.05899  -0.90067  -0.3197 
 H                     3.35034  -0.9525   -1.34797 
 C                    -1.62705  -0.57498   2.37481 
 H                    -2.28722   0.23103   2.13104 
 H                    -2.06811  -1.17806   3.14076 
 H                    -0.69576  -0.18017   2.72369 
 C                     4.13475  -0.85498   0.78132 
 H                     4.73782  -1.73721   0.72756 
 H                     4.7518    0.00792   0.64148 
 H                     3.66209  -0.80392   1.7399 
 

 GradGradGradGradGradGradGradGradGradGradGradGradGradGradGradGradGradGrad
 Berny optimization.
 Initialization pass.
                           ----------------------------
                           !    Initial Parameters    !
                           ! (Angstroms and Degrees)  !
 --------------------------                            --------------------------
 ! Name  Definition              Value          Derivative Info.                !
 --------------------------------------------------------------------------------
 ! R1    R(1,2)                  1.3952         estimate D2E/DX2                !
 ! R2    R(1,6)                  1.3948         estimate D2E/DX2                !
 ! R3    R(1,11)                 1.47           estimate D2E/DX2                !
 ! R4    R(2,3)                  1.3947         estimate D2E/DX2                !
 ! R5    R(2,12)                 1.47           estimate D2E/DX2                !
 ! R6    R(3,4)                  1.3954         estimate D2E/DX2                !
 ! R7    R(3,7)                  1.0997         estimate D2E/DX2                !
 ! R8    R(4,5)                  1.3948         estimate D2E/DX2                !
 ! R9    R(4,8)                  1.0997         estimate D2E/DX2                !
 ! R10   R(5,6)                  1.3951         estimate D2E/DX2                !
 ! R11   R(5,9)                  1.0998         estimate D2E/DX2                !
 ! R12   R(6,10)                 1.0996         estimate D2E/DX2                !
 ! R13   R(11,13)                1.2936         estimate D2E/DX2                !
 ! R14   R(12,15)                1.2936         estimate D2E/DX2                !
 ! R15   R(13,14)                1.07           estimate D2E/DX2                !
 ! R16   R(13,17)                1.54           estimate D2E/DX2                !
 ! R17   R(15,16)                1.07           estimate D2E/DX2                !
 ! R18   R(15,21)                1.54           estimate D2E/DX2                !
 ! R19   R(17,18)                1.07           estimate D2E/DX2                !
 ! R20   R(17,19)                1.07           estimate D2E/DX2                !
 ! R21   R(17,20)                1.07           estimate D2E/DX2                !
 ! R22   R(21,22)                1.07           estimate D2E/DX2                !
 ! R23   R(21,23)                1.07           estimate D2E/DX2                !
 ! R24   R(21,24)                1.07           estimate D2E/DX2                !
 ! A1    A(2,1,6)              119.9985         estimate D2E/DX2                !
 ! A2    A(2,1,11)             119.9972         estimate D2E/DX2                !
 ! A3    A(6,1,11)             120.0043         estimate D2E/DX2                !
 ! A4    A(1,2,3)              120.0086         estimate D2E/DX2                !
 ! A5    A(1,2,12)             119.9808         estimate D2E/DX2                !
 ! A6    A(3,2,12)             120.0105         estimate D2E/DX2                !
 ! A7    A(2,3,4)              119.9942         estimate D2E/DX2                !
 ! A8    A(2,3,7)              120.0128         estimate D2E/DX2                !
 ! A9    A(4,3,7)              119.993          estimate D2E/DX2                !
 ! A10   A(3,4,5)              119.994          estimate D2E/DX2                !
 ! A11   A(3,4,8)              119.9811         estimate D2E/DX2                !
 ! A12   A(5,4,8)              120.0249         estimate D2E/DX2                !
 ! A13   A(4,5,6)              120.0047         estimate D2E/DX2                !
 ! A14   A(4,5,9)              120.0113         estimate D2E/DX2                !
 ! A15   A(6,5,9)              119.984          estimate D2E/DX2                !
 ! A16   A(1,6,5)              120.0            estimate D2E/DX2                !
 ! A17   A(1,6,10)             120.008          estimate D2E/DX2                !
 ! A18   A(5,6,10)             119.992          estimate D2E/DX2                !
 ! A19   A(1,11,13)            120.0            estimate D2E/DX2                !
 ! A20   A(2,12,15)            120.0            estimate D2E/DX2                !
 ! A21   A(11,13,14)           119.8865         estimate D2E/DX2                !
 ! A22   A(11,13,17)           120.2269         estimate D2E/DX2                !
 ! A23   A(14,13,17)           119.8865         estimate D2E/DX2                !
 ! A24   A(12,15,16)           120.2269         estimate D2E/DX2                !
 ! A25   A(12,15,21)           119.8865         estimate D2E/DX2                !
 ! A26   A(16,15,21)           119.8865         estimate D2E/DX2                !
 ! A27   A(13,17,18)           109.4712         estimate D2E/DX2                !
 ! A28   A(13,17,19)           109.4712         estimate D2E/DX2                !
 ! A29   A(13,17,20)           109.4712         estimate D2E/DX2                !
 ! A30   A(18,17,19)           109.4713         estimate D2E/DX2                !
 ! A31   A(18,17,20)           109.4712         estimate D2E/DX2                !
 ! A32   A(19,17,20)           109.4712         estimate D2E/DX2                !
 ! A33   A(15,21,22)           109.4712         estimate D2E/DX2                !
 ! A34   A(15,21,23)           109.4712         estimate D2E/DX2                !
 ! A35   A(15,21,24)           109.4712         estimate D2E/DX2                !
 ! A36   A(22,21,23)           109.4713         estimate D2E/DX2                !
 ! A37   A(22,21,24)           109.4712         estimate D2E/DX2                !
 ! A38   A(23,21,24)           109.4712         estimate D2E/DX2                !
 ! D1    D(6,1,2,3)              0.0323         estimate D2E/DX2                !
 ! D2    D(6,1,2,12)           179.9532         estimate D2E/DX2                !
 ! D3    D(11,1,2,3)          -179.9729         estimate D2E/DX2                !
 ! D4    D(11,1,2,12)           -0.052          estimate D2E/DX2                !
 ! D5    D(2,1,6,5)              0.0149         estimate D2E/DX2                !
 ! D6    D(2,1,6,10)           179.9892         estimate D2E/DX2                !
 ! D7    D(11,1,6,5)          -179.9798         estimate D2E/DX2                !
 ! D8    D(11,1,6,10)           -0.0056         estimate D2E/DX2                !
 ! D9    D(2,1,11,13)           90.0381         estimate D2E/DX2                !
 ! D10   D(6,1,11,13)          -89.9672         estimate D2E/DX2                !
 ! D11   D(1,2,3,4)             -0.0568         estimate D2E/DX2                !
 ! D12   D(1,2,3,7)            179.9619         estimate D2E/DX2                !
 ! D13   D(12,2,3,4)          -179.9777         estimate D2E/DX2                !
 ! D14   D(12,2,3,7)             0.041          estimate D2E/DX2                !
 ! D15   D(1,2,12,15)          163.3231         estimate D2E/DX2                !
 ! D16   D(3,2,12,15)          -16.756          estimate D2E/DX2                !
 ! D17   D(2,3,4,5)              0.0341         estimate D2E/DX2                !
 ! D18   D(2,3,4,8)           -179.9964         estimate D2E/DX2                !
 ! D19   D(7,3,4,5)           -179.9846         estimate D2E/DX2                !
 ! D20   D(7,3,4,8)             -0.0151         estimate D2E/DX2                !
 ! D21   D(3,4,5,6)              0.0131         estimate D2E/DX2                !
 ! D22   D(3,4,5,9)           -179.9995         estimate D2E/DX2                !
 ! D23   D(8,4,5,6)           -179.9563         estimate D2E/DX2                !
 ! D24   D(8,4,5,9)              0.0311         estimate D2E/DX2                !
 ! D25   D(4,5,6,1)             -0.0376         estimate D2E/DX2                !
 ! D26   D(4,5,6,10)           179.9881         estimate D2E/DX2                !
 ! D27   D(9,5,6,1)            179.975          estimate D2E/DX2                !
 ! D28   D(9,5,6,10)             0.0007         estimate D2E/DX2                !
 ! D29   D(1,11,13,14)        -151.2115         estimate D2E/DX2                !
 ! D30   D(1,11,13,17)          28.7885         estimate D2E/DX2                !
 ! D31   D(2,12,15,16)         -84.2606         estimate D2E/DX2                !
 ! D32   D(2,12,15,21)          95.7394         estimate D2E/DX2                !
 ! D33   D(11,13,17,18)         48.8282         estimate D2E/DX2                !
 ! D34   D(11,13,17,19)        168.8282         estimate D2E/DX2                !
 ! D35   D(11,13,17,20)        -71.1718         estimate D2E/DX2                !
 ! D36   D(14,13,17,18)       -131.1718         estimate D2E/DX2                !
 ! D37   D(14,13,17,19)        -11.1718         estimate D2E/DX2                !
 ! D38   D(14,13,17,20)        108.8282         estimate D2E/DX2                !
 ! D39   D(12,15,21,22)        119.925          estimate D2E/DX2                !
 ! D40   D(12,15,21,23)       -120.075          estimate D2E/DX2                !
 ! D41   D(12,15,21,24)         -0.075          estimate D2E/DX2                !
 ! D42   D(16,15,21,22)        -60.075          estimate D2E/DX2                !
 ! D43   D(16,15,21,23)         59.925          estimate D2E/DX2                !
 ! D44   D(16,15,21,24)        179.925          estimate D2E/DX2                !
 --------------------------------------------------------------------------------
 Trust Radius=3.00D-01 FncErr=1.00D-07 GrdErr=1.00D-06 EigMax=2.50D+02 EigMin=1.00D-04
 Number of steps in this run=    116 maximum allowed number of steps=    144.
 GradGradGradGradGradGradGradGradGradGradGradGradGradGradGradGradGradGrad

                          Input orientation:                          
 ---------------------------------------------------------------------
 Center     Atomic      Atomic             Coordinates (Angstroms)
 Number     Number       Type             X           Y           Z
 ---------------------------------------------------------------------
      1          6           0       -0.323529    0.397059    0.000000
      2          6           0        1.071631    0.397059    0.000000
      3          6           0        1.769169    1.604810    0.000000
      4          6           0        1.071515    2.813319   -0.001199
      5          6           0       -0.323310    2.813241   -0.001678
      6          6           0       -1.020911    1.605035   -0.000682
      7          1           0        2.868849    1.604890    0.000634
      8          1           0        1.621715    3.765462   -0.001258
      9          1           0       -0.873432    3.765522   -0.002631
     10          1           0       -2.120515    1.605218   -0.000862
     11          7           0       -1.058468   -0.876034    0.000602
     12          7           0        1.806203   -0.876244    0.001758
     13          6           0       -1.382486   -1.435293    1.121156
     14          1           0       -1.480908   -2.499283    1.177168
     15          6           0        3.058987   -0.900669   -0.319702
     16          1           0        3.350344   -0.952504   -1.347965
     17          6           0       -1.627053   -0.574983    2.374812
     18          1           0       -2.287222    0.231027    2.131038
     19          1           0       -2.068105   -1.178059    3.140757
     20          1           0       -0.695759   -0.180168    2.723686
     21          6           0        4.134753   -0.854985    0.781315
     22          1           0        4.737819   -1.737210    0.727558
     23          1           0        4.751804    0.007915    0.641484
     24          1           0        3.662085   -0.803917    1.739896
 ---------------------------------------------------------------------
                    Distance matrix (angstroms):
                    1          2          3          4          5
     1  C    0.000000
     2  C    1.395160   0.000000
     3  C    2.416205   1.394712   0.000000
     4  C    2.790065   2.416260   1.395427   0.000000
     5  C    2.416183   2.789946   2.416356   1.394825   0.000000
     6  C    1.394829   2.416183   2.790080   2.416236   1.395138
     7  H    3.413229   2.165375   1.099680   2.165806   3.413209
     8  H    3.889745   3.413024   2.165678   1.099680   2.165606
     9  H    3.413055   3.889707   3.413506   2.165528   1.099761
    10  H    2.165365   3.413128   3.889684   3.412999   2.165471
    11  N    1.470000   2.481549   3.761664   4.260065   3.761809
    12  N    2.481343   1.470000   2.481331   3.762001   4.259946
    13  C    2.394972   3.261471   4.520193   5.033140   4.520249
    14  H    3.333774   4.036084   5.365846   6.010587   5.563508
    15  C    3.636994   2.394972   2.836065   4.224357   5.033309
    16  H    4.139526   2.971677   3.294993   4.603071   5.430383
    17  C    2.878154   3.723908   4.682473   4.940474   4.339068
    18  H    2.902581   3.981304   4.783608   4.742971   3.882429
    19  H    3.922868   4.712037   5.686245   5.971616   5.371190
    20  H    2.808952   3.297776   4.084175   4.416925   4.065320
    21  C    4.696206   3.400116   3.501005   4.842748   5.826087
    22  H    5.540911   4.304112   4.528943   5.888989   6.844956
    23  H    5.130491   3.755877   3.443499   4.672029   5.834406
    24  H    4.511619   3.343656   3.523115   4.777747   5.656880
                    6          7          8          9         10
     6  C    0.000000
     7  H    3.889760   0.000000
     8  H    3.413344   2.494678   0.000000
     9  H    2.165516   4.321228   2.495147   0.000000
    10  H    1.099604   4.989364   4.320988   2.494420   0.000000
    11  N    2.481353   4.645298   5.359745   4.645244   2.698992
    12  N    3.761559   2.699119   4.645372   5.359707   4.645081
    13  C    3.260805   5.345290   6.110064   5.345139   3.323901
    14  H    4.294689   6.094986   7.089569   6.403806   4.317845
    15  C    4.798531   2.533099   4.892845   6.110466   5.762671
    16  H    5.240615   2.931010   5.202017   6.473792   6.187643
    17  C    3.280679   5.531880   5.919431   5.006012   3.261994
    18  H    2.834726   5.745536   5.684954   4.363943   2.541887
    19  H    4.325606   6.479096   6.922819   5.978890   4.197517
    20  H    3.273356   4.827823   5.325787   4.799255   3.555376
    21  C    5.765769   2.874537   5.317547   6.858978   6.767037
    22  H    6.698053   3.897577   6.365586   7.892996   7.664148
    23  H    6.023903   2.550791   4.932518   6.795423   7.084684
    24  H    5.546451   3.075160   5.298486   6.669865   6.501741
                   11         12         13         14         15
    11  N    0.000000
    12  N    2.864671   0.000000
    13  C    1.293600   3.425394   0.000000
    14  H    2.048829   3.849798   1.070000   0.000000
    15  C    4.129968   1.293600   4.699849   5.040520   0.000000
    16  H    4.611084   2.052301   5.359974   5.666553   1.070000
    17  C    2.459837   4.184423   1.540000   2.271265   5.415298
    18  H    2.697069   4.745104   2.148263   3.002434   5.989058
    19  H    3.312275   4.995466   2.148263   2.438467   6.191834
    20  H    2.833898   3.762078   2.148263   2.895941   4.886661
    21  C    5.251619   2.455668   5.558073   5.864817   1.540000
    22  H    5.904831   3.140449   6.140375   6.281359   2.148263
    23  H    5.911967   3.141266   6.320003   6.739414   2.148263
    24  H    5.031299   2.543748   5.121442   5.444384   2.148263
                   16         17         18         19         20
    16  H    0.000000
    17  C    6.227044   0.000000
    18  H    6.729514   1.070000   0.000000
    19  H    7.039822   1.070000   1.747303   0.000000
    20  H    5.791874   1.070000   1.747303   1.747303   0.000000
    21  C    2.271265   5.984651   6.651537   6.644306   5.249956
    22  H    2.616992   6.676512   7.429328   7.242706   5.994387
    23  H    2.616181   6.635813   7.198363   7.359624   5.834971
    24  H    3.107113   5.332027   6.051310   5.910793   4.510844
                   21         22         23         24
    21  C    0.000000
    22  H    1.070000   0.000000
    23  H    1.070000   1.747303   0.000000
    24  H    1.070000   1.747303   1.747303   0.000000
 Stoichiometry    C10H12N2
 Framework group  C1[X(C10H12N2)]
 Deg. of freedom    66
 Full point group                 C1      NOp   1
 Largest Abelian subgroup         C1      NOp   1
 Largest concise Abelian subgroup C1      NOp   1
                         Standard orientation:                         
 ---------------------------------------------------------------------
 Center     Atomic      Atomic             Coordinates (Angstroms)
 Number     Number       Type             X           Y           Z
 ---------------------------------------------------------------------
      1          6           0       -0.895658    0.107980   -0.538598
      2          6           0        0.469020    0.237531   -0.279096
      3          6           0        0.981924    1.455910    0.165543
      4          6           0        0.130197    2.545796    0.349735
      5          6           0       -1.234069    2.416336    0.089821
      6          6           0       -1.747124    1.197236   -0.354005
      7          1           0        2.057469    1.557922    0.370707
      8          1           0        0.534842    3.506361    0.700269
      9          1           0       -1.905588    3.275110    0.234881
     10          1           0       -2.822702    1.095355   -0.558656
     11          7           0       -1.436074   -1.176453   -1.006660
     12          7           0        1.365861   -0.910972   -0.472785
     13          6           0       -1.846526   -2.055738   -0.151214
     14          1           0       -1.802163   -3.096915   -0.393873
     15          6           0        2.644028   -0.727602   -0.550660
     16          1           0        3.094079   -0.460994   -1.484081
     17          6           0       -2.398790   -1.609134    1.215222
     18          1           0       -3.120175   -0.832030    1.071647
     19          1           0       -2.863158   -2.441451    1.701545
     20          1           0       -1.596754   -1.243617    1.821882
     21          6           0        3.520929   -0.893591    0.704367
     22          1           0        4.242804   -1.665155    0.535592
     23          1           0        4.024929    0.027232    0.911657
     24          1           0        2.904328   -1.158180    1.537852
 ---------------------------------------------------------------------
 Rotational constants (GHZ):           1.1593779           0.7946199           0.5384768
 Standard basis: 6-31G(d) (6D, 7F)
 There are   204 symmetry adapted cartesian basis functions of A   symmetry.
 There are   204 symmetry adapted basis functions of A   symmetry.
   204 basis functions,   384 primitive gaussians,   204 cartesian basis functions
    43 alpha electrons       43 beta electrons
       nuclear repulsion energy       649.0540858903 Hartrees.
 NAtoms=   24 NActive=   24 NUniq=   24 SFac= 1.00D+00 NAtFMM=   60 NAOKFM=F Big=F
 Integral buffers will be    131072 words long.
 Raffenetti 2 integral format.
 Two-electron integral symmetry is turned on.
 ------------------------------------------------------------------------------
 Polarizable Continuum Model (PCM)
 =================================
 Model                : PCM.
 Atomic radii         : SMD-Coulomb.
 Polarization charges : Total charges.
 Charge compensation  : None.
 Solution method      : On-the-fly selection.
 Cavity type          : VdW (van der Waals Surface) (Alpha=1.000).
 Cavity algorithm     : GePol (No added spheres)
                        Default sphere list used, NSphG=   24.
                        Lebedev-Laikov grids with approx.  5.0 points / Ang**2.
                        Smoothing algorithm: York/Karplus (Gamma=1.0000).
                        Polarization charges: spherical gaussians, with
                                              point-specific exponents (IZeta= 3).
                        Self-potential: point-specific (ISelfS= 7).
                        Self-field    : sphere-specific E.n sum rule (ISelfD= 2).
 1st derivatives      : Analytical E(r).r(x)/FMM algorithm (CHGder, D1EAlg=3).
                        Cavity 1st derivative terms included.
 Solvent              : Toluene, Eps=   2.374100 Eps(inf)=   2.238315
 ------------------------------------------------------------------------------
 ------------------------------------------------------------------------------
 Atomic radii for non-electrostatic terms: SMD-CDS.
 ------------------------------------------------------------------------------
 Nuclear repulsion after PCM non-electrostatic terms =      649.0484873596 Hartrees.
 One-electron integrals computed using PRISM.
 NBasis=   204 RedAO= T EigKep=  3.62D-04  NBF=   204
 NBsUse=   204 1.00D-06 EigRej= -1.00D+00 NBFU=   204
 ExpMin= 1.61D-01 ExpMax= 4.17D+03 ExpMxC= 6.27D+02 IAcc=3 IRadAn=         5 AccDes= 0.00D+00
 Harris functional with IExCor=  402 and IRadAn=       5 diagonalized for initial guess.
 HarFok:  IExCor=  402 AccDes= 0.00D+00 IRadAn=         5 IDoV= 1 UseB2=F ITyADJ=14
 ICtDFT=  3500011 ScaDFX=  1.000000  1.000000  1.000000  1.000000
 FoFCou: FMM=F IPFlag=           0 FMFlag=      100000 FMFlg1=           0
         NFxFlg=           0 DoJE=T BraDBF=F KetDBF=T FulRan=T
         wScrn=  0.000000 ICntrl=       500 IOpCl=  0 I1Cent=   200000004 NGrid=           0
         NMat0=    1 NMatS0=      1 NMatT0=    0 NMatD0=    1 NMtDS0=    0 NMtDT0=    0
 Petite list used in FoFCou.
 Requested convergence on RMS density matrix=1.00D-08 within 128 cycles.
 Requested convergence on MAX density matrix=1.00D-06.
 Requested convergence on             energy=1.00D-06.
 No special actions if energy rises.
 Inv3:  Mode=1 IEnd=    10990188.
 Iteration    1 A*A^-1 deviation from unit magnitude is 5.11D-15 for   1897.
 Iteration    1 A*A^-1 deviation from orthogonality  is 2.95D-15 for   1039    376.
 Iteration    1 A^-1*A deviation from unit magnitude is 5.11D-15 for   1897.
 Iteration    1 A^-1*A deviation from orthogonality  is 1.30D-15 for   1782    632.
 Error on total polarization charges =  0.02529
 SCF Done:  E(RB3LYP) =  -497.680267641     A.U. after   16 cycles
            NFock= 16  Conv=0.46D-08     -V/T= 2.0100
 SMD-CDS (non-electrostatic) energy       (kcal/mol) =      -3.51
 (included in total energy above)

 **********************************************************************

            Population analysis using the SCF Density.

 **********************************************************************

 Orbital symmetries:
       Occupied  (A) (A) (A) (A) (A) (A) (A) (A) (A) (A) (A) (A)
                 (A) (A) (A) (A) (A) (A) (A) (A) (A) (A) (A) (A)
                 (A) (A) (A) (A) (A) (A) (A) (A) (A) (A) (A) (A)
                 (A) (A) (A) (A) (A) (A) (A)
       Virtual   (A) (A) (A) (A) (A) (A) (A) (A) (A) (A) (A) (A)
                 (A) (A) (A) (A) (A) (A) (A) (A) (A) (A) (A) (A)
                 (A) (A) (A) (A) (A) (A) (A) (A) (A) (A) (A) (A)
                 (A) (A) (A) (A) (A) (A) (A) (A) (A) (A) (A) (A)
                 (A) (A) (A) (A) (A) (A) (A) (A) (A) (A) (A) (A)
                 (A) (A) (A) (A) (A) (A) (A) (A) (A) (A) (A) (A)
                 (A) (A) (A) (A) (A) (A) (A) (A) (A) (A) (A) (A)
                 (A) (A) (A) (A) (A) (A) (A) (A) (A) (A) (A) (A)
                 (A) (A) (A) (A) (A) (A) (A) (A) (A) (A) (A) (A)
                 (A) (A) (A) (A) (A) (A) (A) (A) (A) (A) (A) (A)
                 (A) (A) (A) (A) (A) (A) (A) (A) (A) (A) (A) (A)
                 (A) (A) (A) (A) (A) (A) (A) (A) (A) (A) (A) (A)
                 (A) (A) (A) (A) (A) (A) (A) (A) (A) (A) (A) (A)
                 (A) (A) (A) (A) (A)
 The electronic state is 1-A.
 Alpha  occ. eigenvalues --  -14.32212 -14.31237 -10.26883 -10.23517 -10.23456
 Alpha  occ. eigenvalues --  -10.20969 -10.18479 -10.18038 -10.17934 -10.17889
 Alpha  occ. eigenvalues --  -10.17300 -10.17123  -0.92041  -0.89818  -0.83278
 Alpha  occ. eigenvalues --   -0.75363  -0.74018  -0.71830  -0.70576  -0.61747
 Alpha  occ. eigenvalues --   -0.61001  -0.57109  -0.54691  -0.50511  -0.47282
 Alpha  occ. eigenvalues --   -0.45681  -0.44801  -0.43664  -0.43288  -0.42540
 Alpha  occ. eigenvalues --   -0.41738  -0.41368  -0.39742  -0.38416  -0.36810
 Alpha  occ. eigenvalues --   -0.35654  -0.34543  -0.31261  -0.30347  -0.26981
 Alpha  occ. eigenvalues --   -0.25230  -0.21480  -0.17198
 Alpha virt. eigenvalues --   -0.07101  -0.01584   0.01145   0.02551   0.09780
 Alpha virt. eigenvalues --    0.11605   0.13487   0.14048   0.14454   0.15722
 Alpha virt. eigenvalues --    0.16773   0.16922   0.18197   0.18451   0.19127
 Alpha virt. eigenvalues --    0.20035   0.21851   0.22174   0.24514   0.25444
 Alpha virt. eigenvalues --    0.28453   0.31021   0.32447   0.34490   0.35360
 Alpha virt. eigenvalues --    0.37374   0.39436   0.49805   0.50600   0.51538
 Alpha virt. eigenvalues --    0.52181   0.53039   0.54324   0.55572   0.56515
 Alpha virt. eigenvalues --    0.57484   0.57848   0.58667   0.60556   0.60848
 Alpha virt. eigenvalues --    0.61973   0.62121   0.62394   0.63437   0.64497
 Alpha virt. eigenvalues --    0.65208   0.66716   0.69132   0.70199   0.71196
 Alpha virt. eigenvalues --    0.74537   0.75702   0.76284   0.78027   0.79860
 Alpha virt. eigenvalues --    0.81454   0.82889   0.84308   0.85256   0.87544
 Alpha virt. eigenvalues --    0.88787   0.89347   0.91311   0.91636   0.92103
 Alpha virt. eigenvalues --    0.92429   0.93107   0.94661   0.96167   0.96624
 Alpha virt. eigenvalues --    0.98752   0.99999   1.01555   1.04249   1.05626
 Alpha virt. eigenvalues --    1.08531   1.11509   1.12793   1.16401   1.20361
 Alpha virt. eigenvalues --    1.23320   1.23706   1.26655   1.27976   1.35881
 Alpha virt. eigenvalues --    1.37937   1.41868   1.42794   1.45065   1.45965
 Alpha virt. eigenvalues --    1.49091   1.49312   1.50394   1.51456   1.52431
 Alpha virt. eigenvalues --    1.60191   1.65019   1.72847   1.75690   1.77330
 Alpha virt. eigenvalues --    1.78994   1.80957   1.82171   1.85121   1.85939
 Alpha virt. eigenvalues --    1.88431   1.91825   1.92339   1.93113   1.97559
 Alpha virt. eigenvalues --    1.99265   2.00647   2.06041   2.07953   2.10249
 Alpha virt. eigenvalues --    2.11214   2.12287   2.16539   2.18556   2.21833
 Alpha virt. eigenvalues --    2.22856   2.25189   2.26274   2.29814   2.31132
 Alpha virt. eigenvalues --    2.32203   2.34170   2.34806   2.40131   2.43911
 Alpha virt. eigenvalues --    2.47354   2.49812   2.52120   2.54170   2.54970
 Alpha virt. eigenvalues --    2.62670   2.66157   2.67374   2.67588   2.74788
 Alpha virt. eigenvalues --    2.77040   2.78012   2.83043   2.86468   2.89378
 Alpha virt. eigenvalues --    2.91175   3.05605   3.18633   3.44359   3.93472
 Alpha virt. eigenvalues --    4.10549   4.11973   4.13270   4.14523   4.16802
 Alpha virt. eigenvalues --    4.19104   4.33601   4.37025   4.39250   4.43935
 Alpha virt. eigenvalues --    4.75400
          Condensed to atoms (all electrons):
               1          2          3          4          5          6
     1  C    4.802589   0.482334  -0.046094  -0.037428  -0.021119   0.514774
     2  C    0.482334   4.653105   0.511274  -0.014496  -0.039200  -0.038830
     3  C   -0.046094   0.511274   5.078771   0.507022  -0.032403  -0.048358
     4  C   -0.037428  -0.014496   0.507022   4.900833   0.545268  -0.031989
     5  C   -0.021119  -0.039200  -0.032403   0.545268   4.921319   0.506984
     6  C    0.514774  -0.038830  -0.048358  -0.031989   0.506984   5.015177
     7  H    0.004163  -0.040342   0.353857  -0.040785   0.004477   0.000555
     8  H    0.000868   0.003490  -0.037512   0.356113  -0.039258   0.004310
     9  H    0.003187   0.000870   0.004592  -0.040874   0.355625  -0.037378
    10  H   -0.040347   0.004681   0.000365   0.004737  -0.041632   0.356063
    11  N    0.278140  -0.065090   0.004827   0.000040   0.005008  -0.067856
    12  N   -0.072556   0.323287  -0.080796   0.005782  -0.000034   0.005455
    13  C   -0.065437  -0.007720   0.000173   0.000014  -0.000078  -0.005483
    14  H    0.004446   0.000398   0.000010  -0.000000   0.000009  -0.000342
    15  C    0.007272  -0.044324  -0.020742   0.001100  -0.000046  -0.000007
    16  H    0.000293   0.000790   0.002823  -0.000052  -0.000004  -0.000011
    17  C   -0.008245  -0.001264  -0.000108  -0.000010  -0.000170   0.004758
    18  H   -0.000554  -0.000159   0.000005  -0.000001   0.000048   0.003601
    19  H    0.000910   0.000008  -0.000000  -0.000000   0.000003   0.000052
    20  H    0.002346   0.002678  -0.000026  -0.000021   0.000127  -0.001004
    21  C   -0.000326  -0.001312   0.002068   0.000000  -0.000002   0.000008
    22  H    0.000011  -0.000000  -0.000014   0.000001  -0.000000   0.000000
    23  H   -0.000003  -0.000271  -0.000752  -0.000066   0.000001  -0.000001
    24  H   -0.000117   0.001107  -0.000186  -0.000022   0.000003  -0.000002
               7          8          9         10         11         12
     1  C    0.004163   0.000868   0.003187  -0.040347   0.278140  -0.072556
     2  C   -0.040342   0.003490   0.000870   0.004681  -0.065090   0.323287
     3  C    0.353857  -0.037512   0.004592   0.000365   0.004827  -0.080796
     4  C   -0.040785   0.356113  -0.040874   0.004737   0.000040   0.005782
     5  C    0.004477  -0.039258   0.355625  -0.041632   0.005008  -0.000034
     6  C    0.000555   0.004310  -0.037378   0.356063  -0.067856   0.005455
     7  H    0.594813  -0.005259  -0.000177   0.000014  -0.000073  -0.011308
     8  H   -0.005259   0.587321  -0.005158  -0.000179   0.000003  -0.000081
     9  H   -0.000177  -0.005158   0.595080  -0.005161  -0.000104   0.000004
    10  H    0.000014  -0.000179  -0.005161   0.583444  -0.006150  -0.000070
    11  N   -0.000073   0.000003  -0.000104  -0.006150   6.849745  -0.002627
    12  N   -0.011308  -0.000081   0.000004  -0.000070  -0.002627   6.934406
    13  C   -0.000001   0.000000  -0.000001   0.001568   0.573605   0.005077
    14  H   -0.000000   0.000000  -0.000000  -0.000053  -0.049372  -0.000189
    15  C    0.003180  -0.000038   0.000000   0.000002   0.000342   0.557655
    16  H    0.000400  -0.000000   0.000000  -0.000000  -0.000019  -0.064608
    17  C   -0.000000   0.000000   0.000002  -0.000734  -0.073345  -0.000144
    18  H   -0.000000  -0.000000  -0.000000   0.001415  -0.008066   0.000001
    19  H   -0.000000  -0.000000  -0.000000  -0.000028   0.004634  -0.000006
    20  H    0.000005  -0.000000  -0.000006   0.000077  -0.003819   0.000231
    21  C   -0.000794  -0.000001   0.000000  -0.000000   0.000004  -0.097948
    22  H    0.000023  -0.000000  -0.000000   0.000000  -0.000000   0.002449
    23  H    0.003349   0.000003  -0.000000   0.000000   0.000000   0.002126
    24  H    0.000038  -0.000000   0.000000  -0.000000  -0.000001   0.007940
              13         14         15         16         17         18
     1  C   -0.065437   0.004446   0.007272   0.000293  -0.008245  -0.000554
     2  C   -0.007720   0.000398  -0.044324   0.000790  -0.001264  -0.000159
     3  C    0.000173   0.000010  -0.020742   0.002823  -0.000108   0.000005
     4  C    0.000014  -0.000000   0.001100  -0.000052  -0.000010  -0.000001
     5  C   -0.000078   0.000009  -0.000046  -0.000004  -0.000170   0.000048
     6  C   -0.005483  -0.000342  -0.000007  -0.000011   0.004758   0.003601
     7  H   -0.000001  -0.000000   0.003180   0.000400  -0.000000  -0.000000
     8  H    0.000000   0.000000  -0.000038  -0.000000   0.000000  -0.000000
     9  H   -0.000001  -0.000000   0.000000   0.000000   0.000002  -0.000000
    10  H    0.001568  -0.000053   0.000002  -0.000000  -0.000734   0.001415
    11  N    0.573605  -0.049372   0.000342  -0.000019  -0.073345  -0.008066
    12  N    0.005077  -0.000189   0.557655  -0.064608  -0.000144   0.000001
    13  C    4.789195   0.374254  -0.000050   0.000016   0.337598  -0.026522
    14  H    0.374254   0.566585  -0.000000  -0.000000  -0.071549   0.002473
    15  C   -0.000050  -0.000000   4.744594   0.341883   0.000015   0.000000
    16  H    0.000016  -0.000000   0.341883   0.631857  -0.000001   0.000000
    17  C    0.337598  -0.071549   0.000015  -0.000001   5.209605   0.384432
    18  H   -0.026522   0.002473   0.000000   0.000000   0.384432   0.510261
    19  H   -0.022011  -0.000211  -0.000000  -0.000000   0.356288  -0.029246
    20  H   -0.025160   0.003549  -0.000014   0.000000   0.368493  -0.023975
    21  C   -0.000018   0.000000   0.325604  -0.090833   0.000002  -0.000000
    22  H    0.000000  -0.000000  -0.019150   0.003436  -0.000000   0.000000
    23  H    0.000000   0.000000  -0.021016   0.003492  -0.000000   0.000000
    24  H    0.000013  -0.000000  -0.027445   0.005101  -0.000003   0.000000
              19         20         21         22         23         24
     1  C    0.000910   0.002346  -0.000326   0.000011  -0.000003  -0.000117
     2  C    0.000008   0.002678  -0.001312  -0.000000  -0.000271   0.001107
     3  C   -0.000000  -0.000026   0.002068  -0.000014  -0.000752  -0.000186
     4  C   -0.000000  -0.000021   0.000000   0.000001  -0.000066  -0.000022
     5  C    0.000003   0.000127  -0.000002  -0.000000   0.000001   0.000003
     6  C    0.000052  -0.001004   0.000008   0.000000  -0.000001  -0.000002
     7  H   -0.000000   0.000005  -0.000794   0.000023   0.003349   0.000038
     8  H   -0.000000  -0.000000  -0.000001  -0.000000   0.000003  -0.000000
     9  H   -0.000000  -0.000006   0.000000  -0.000000  -0.000000   0.000000
    10  H   -0.000028   0.000077  -0.000000   0.000000   0.000000  -0.000000
    11  N    0.004634  -0.003819   0.000004  -0.000000   0.000000  -0.000001
    12  N   -0.000006   0.000231  -0.097948   0.002449   0.002126   0.007940
    13  C   -0.022011  -0.025160  -0.000018   0.000000   0.000000   0.000013
    14  H   -0.000211   0.003549   0.000000  -0.000000   0.000000  -0.000000
    15  C   -0.000000  -0.000014   0.325604  -0.019150  -0.021016  -0.027445
    16  H   -0.000000   0.000000  -0.090833   0.003436   0.003492   0.005101
    17  C    0.356288   0.368493   0.000002  -0.000000  -0.000000  -0.000003
    18  H   -0.029246  -0.023975  -0.000000   0.000000   0.000000   0.000000
    19  H    0.555925  -0.025401   0.000000  -0.000000   0.000000  -0.000000
    20  H   -0.025401   0.509979  -0.000003  -0.000000   0.000000   0.000014
    21  C    0.000000  -0.000003   5.305378   0.346229   0.351383   0.360823
    22  H   -0.000000  -0.000000   0.346229   0.527867  -0.021767  -0.022874
    23  H    0.000000   0.000000   0.351383  -0.021767   0.514083  -0.021970
    24  H   -0.000000   0.000014   0.360823  -0.022874  -0.021970   0.509170
 Mulliken charges:
               1
     1  C    0.190894
     2  C    0.268985
     3  C   -0.198795
     4  C   -0.155164
     5  C   -0.164925
     6  C   -0.180476
     7  H    0.133866
     8  H    0.135380
     9  H    0.129499
    10  H    0.141990
    11  N   -0.439824
    12  N   -0.514046
    13  C    0.070968
    14  H    0.169993
    15  C    0.151186
    16  H    0.165438
    17  C   -0.505621
    18  H    0.186288
    19  H    0.159085
    20  H    0.191931
    21  C   -0.500264
    22  H    0.183788
    23  H    0.191411
    24  H    0.188412
 Sum of Mulliken charges =  -0.00000
 Mulliken charges with hydrogens summed into heavy atoms:
               1
     1  C    0.190894
     2  C    0.268985
     3  C   -0.064929
     4  C   -0.019784
     5  C   -0.035426
     6  C   -0.038486
    11  N   -0.439824
    12  N   -0.514046
    13  C    0.240961
    15  C    0.316624
    17  C    0.031683
    21  C    0.063347
 Electronic spatial extent (au):  <R**2>=           2214.1919
 Charge=             -0.0000 electrons
 Dipole moment (field-independent basis, Debye):
    X=              2.4852    Y=             -0.4455    Z=              2.2817  Tot=              3.4031
 Quadrupole moment (field-independent basis, Debye-Ang):
   XX=            -52.5372   YY=            -66.3617   ZZ=            -75.0332
   XY=              0.7165   XZ=             -2.7710   YZ=             -1.9144
 Traceless Quadrupole moment (field-independent basis, Debye-Ang):
   XX=             12.1068   YY=             -1.7177   ZZ=            -10.3892
   XY=              0.7165   XZ=             -2.7710   YZ=             -1.9144
 Octapole moment (field-independent basis, Debye-Ang**2):
  XXX=             37.4241  YYY=            -11.0333  ZZZ=              5.8145  XYY=             -6.0708
  XXY=            -10.7068  XXZ=              2.6799  XZZ=              9.0884  YZZ=             -2.9455
  YYZ=              9.3454  XYZ=              5.8805
 Hexadecapole moment (field-independent basis, Debye-Ang**3):
 XXXX=          -1456.7329 YYYY=           -999.9721 ZZZZ=           -276.5365 XXXY=            -30.5596
 XXXZ=             -9.0459 YYYX=             22.3358 YYYZ=             17.0322 ZZZX=            -10.9170
 ZZZY=            -10.1414 XXYY=           -413.9138 XXZZ=           -318.7167 YYZZ=           -238.7928
 XXYZ=             -3.8366 YYXZ=             -3.4784 ZZXY=             -2.2629
 N-N= 6.490484873596D+02 E-N=-2.452383065517D+03  KE= 4.927738310862D+02
 D1PCM: PCM CHGder 1st derivatives, ID1Alg=3 FixD1E=F DoIter=F DoCFld=F I1PDM=0.
 Calling FoFJK, ICntrl=      2127 FMM=F ISym2X=0 I1Cent= 0 IOpClX= 0 NMat=1 NMatS=1 NMatT=0.
 ***** Axes restored to original set *****
 -------------------------------------------------------------------
 Center     Atomic                   Forces (Hartrees/Bohr)
 Number     Number              X              Y              Z
 -------------------------------------------------------------------
      1        6          -0.053098659   -0.013485517    0.007992644
      2        6           0.016498592   -0.065689698   -0.012092985
      3        6           0.010925914    0.013302245   -0.001737078
      4        6           0.002052514    0.006215412    0.000617471
      5        6          -0.004709144    0.013925825   -0.001399583
      6        6          -0.003080044    0.003637013   -0.000442956
      7        1          -0.009951497   -0.000154764    0.000379738
      8        1          -0.003350548   -0.007809150   -0.000200534
      9        1           0.004011118   -0.007386414   -0.000005958
     10        1           0.008985642   -0.001832005   -0.000389751
     11        7           0.040782551   -0.015731079    0.005627940
     12        7           0.005526875    0.067408358    0.002249002
     13        6           0.004589548    0.061061515   -0.007258435
     14        1          -0.014872541   -0.014668150   -0.004867913
     15        6          -0.021406643   -0.007164958    0.048255818
     16        1           0.013430477    0.003307903   -0.021171980
     17        6           0.008382438   -0.031818852   -0.016591809
     18        1          -0.008668337    0.012156279   -0.002628800
     19        1          -0.006727795   -0.007673578    0.014904163
     20        1           0.014244939    0.008581568    0.008394482
     21        6          -0.024655611   -0.017627411   -0.026446339
     22        1           0.016680843   -0.013544460    0.000465511
     23        1           0.012766081    0.014237562   -0.006398780
     24        1          -0.008356713    0.000752356    0.012746132
 -------------------------------------------------------------------
 Cartesian Forces:  Max     0.067408358 RMS     0.019703066

 GradGradGradGradGradGradGradGradGradGradGradGradGradGradGradGradGradGrad
 Berny optimization.
 FormGI is forming the generalized inverse of G from B-inverse, IUseBI=4.
 Internal  Forces:  Max     0.060600471 RMS     0.011966241
 Search for a local minimum.
 Step number   1 out of a maximum of  116
 All quantities printed in internal units (Hartrees-Bohrs-Radians)
 Mixed Optimization -- RFO/linear search
 Second derivative matrix not updated -- first step.
 ITU=  0
     Eigenvalues ---    0.00237   0.00237   0.00766   0.00766   0.00952
     Eigenvalues ---    0.00956   0.01890   0.01916   0.02152   0.02153
     Eigenvalues ---    0.02154   0.02155   0.02155   0.02156   0.02156
     Eigenvalues ---    0.03099   0.03099   0.07243   0.07243   0.07243
     Eigenvalues ---    0.07243   0.16000   0.16000   0.16000   0.16000
     Eigenvalues ---    0.16000   0.16000   0.16000   0.16000   0.16000
     Eigenvalues ---    0.16000   0.16000   0.16000   0.22000   0.22000
     Eigenvalues ---    0.22000   0.22494   0.24487   0.25000   0.25000
     Eigenvalues ---    0.25000   0.25000   0.28519   0.28519   0.33709
     Eigenvalues ---    0.33718   0.33718   0.33726   0.35740   0.35740
     Eigenvalues ---    0.37230   0.37230   0.37230   0.37230   0.37230
     Eigenvalues ---    0.37230   0.37230   0.37230   0.42214   0.42390
     Eigenvalues ---    0.46412   0.46453   0.46466   0.46497   0.69002
     Eigenvalues ---    0.69002
 RFO step:  Lambda=-5.86281404D-02 EMin= 2.36824147D-03
 Linear search not attempted -- first point.
 Maximum step size (   0.300) exceeded in Quadratic search.
    -- Step size scaled by   0.884
 Iteration  1 RMS(Cart)=  0.24783707 RMS(Int)=  0.01321343
 Iteration  2 RMS(Cart)=  0.04772641 RMS(Int)=  0.00048574
 Iteration  3 RMS(Cart)=  0.00083201 RMS(Int)=  0.00021506
 Iteration  4 RMS(Cart)=  0.00000035 RMS(Int)=  0.00021506
 Variable       Old X    -DE/DX   Delta X   Delta X   Delta X     New X
                                 (Linear)    (Quad)   (Total)
    R1        2.63647   0.00989   0.00000   0.01732   0.01736   2.65383
    R2        2.63584   0.00246   0.00000   0.00424   0.00426   2.64011
    R3        2.77790  -0.02917   0.00000  -0.06199  -0.06199   2.71591
    R4        2.63562   0.01173   0.00000   0.02032   0.02033   2.65595
    R5        2.77790  -0.04404   0.00000  -0.09358  -0.09358   2.68432
    R6        2.63697   0.00143   0.00000   0.00234   0.00231   2.63929
    R7        2.07809  -0.00995   0.00000  -0.02223  -0.02223   2.05587
    R8        2.63584   0.00027   0.00000  -0.00015  -0.00018   2.63565
    R9        2.07809  -0.00844   0.00000  -0.01885  -0.01885   2.05925
   R10        2.63643   0.00342   0.00000   0.00526   0.00525   2.64167
   R11        2.07825  -0.00840   0.00000  -0.01877  -0.01877   2.05948
   R12        2.07795  -0.00898   0.00000  -0.02006  -0.02006   2.05789
   R13        2.44455  -0.01815   0.00000  -0.02143  -0.02143   2.42312
   R14        2.44455  -0.01264   0.00000  -0.01493  -0.01493   2.42962
   R15        2.02201   0.01570   0.00000   0.03221   0.03221   2.05422
   R16        2.91018  -0.00831   0.00000  -0.02135  -0.02135   2.88882
   R17        2.02201   0.02384   0.00000   0.04891   0.04891   2.07092
   R18        2.91018  -0.01700   0.00000  -0.04371  -0.04371   2.86647
   R19        2.02201   0.01510   0.00000   0.03098   0.03098   2.05299
   R20        2.02201   0.01777   0.00000   0.03645   0.03645   2.05846
   R21        2.02201   0.01830   0.00000   0.03755   0.03755   2.05955
   R22        2.02201   0.02054   0.00000   0.04214   0.04214   2.06415
   R23        2.02201   0.01968   0.00000   0.04038   0.04038   2.06239
   R24        2.02201   0.01515   0.00000   0.03107   0.03107   2.05308
    A1        2.09437  -0.00026   0.00000   0.00024   0.00020   2.09457
    A2        2.09435  -0.01244   0.00000  -0.03611  -0.03625   2.05809
    A3        2.09447   0.01269   0.00000   0.03586   0.03568   2.13015
    A4        2.09455  -0.00552   0.00000  -0.01409  -0.01405   2.08049
    A5        2.09406  -0.00609   0.00000  -0.01832  -0.01839   2.07567
    A6        2.09458   0.01161   0.00000   0.03239   0.03230   2.12688
    A7        2.09429   0.00161   0.00000   0.00569   0.00571   2.10000
    A8        2.09462  -0.00096   0.00000  -0.00348  -0.00349   2.09112
    A9        2.09427  -0.00065   0.00000  -0.00220  -0.00221   2.09206
   A10        2.09429   0.00256   0.00000   0.00654   0.00651   2.10080
   A11        2.09407  -0.00232   0.00000  -0.00748  -0.00747   2.08660
   A12        2.09483  -0.00024   0.00000   0.00094   0.00095   2.09578
   A13        2.09448  -0.00208   0.00000  -0.00902  -0.00904   2.08544
   A14        2.09459   0.00128   0.00000   0.00546   0.00547   2.10007
   A15        2.09411   0.00081   0.00000   0.00356   0.00357   2.09768
   A16        2.09440   0.00369   0.00000   0.01063   0.01065   2.10505
   A17        2.09453  -0.00375   0.00000  -0.01302  -0.01305   2.08148
   A18        2.09426   0.00006   0.00000   0.00239   0.00235   2.09661
   A19        2.09440   0.00590   0.00000   0.01691   0.01691   2.11131
   A20        2.09440   0.06060   0.00000   0.17357   0.17357   2.26797
   A21        2.09241  -0.01776   0.00000  -0.05836  -0.05838   2.03404
   A22        2.09836   0.03093   0.00000   0.09813   0.09811   2.19646
   A23        2.09241  -0.01317   0.00000  -0.03977  -0.03980   2.05262
   A24        2.09836  -0.00096   0.00000   0.00328   0.00263   2.10099
   A25        2.09241   0.01643   0.00000   0.05214   0.05152   2.14393
   A26        2.09241  -0.01548   0.00000  -0.05542  -0.05601   2.03640
   A27        1.91063  -0.00005   0.00000  -0.00070  -0.00072   1.90992
   A28        1.91063   0.00387   0.00000   0.01643   0.01634   1.92697
   A29        1.91063   0.00395   0.00000   0.01571   0.01563   1.92626
   A30        1.91063  -0.00167   0.00000  -0.00623  -0.00625   1.90438
   A31        1.91063  -0.00268   0.00000  -0.01240  -0.01240   1.89824
   A32        1.91063  -0.00343   0.00000  -0.01281  -0.01296   1.89767
   A33        1.91063   0.00803   0.00000   0.03287   0.03289   1.94353
   A34        1.91063  -0.00443   0.00000  -0.02084  -0.02080   1.88984
   A35        1.91063  -0.00232   0.00000  -0.00686  -0.00698   1.90366
   A36        1.91063  -0.00414   0.00000  -0.02180  -0.02162   1.88901
   A37        1.91063  -0.00013   0.00000   0.00536   0.00523   1.91587
   A38        1.91063   0.00299   0.00000   0.01126   0.01117   1.92180
    D1        0.00056   0.00051   0.00000   0.00631   0.00619   0.00675
    D2        3.14078  -0.00092   0.00000  -0.01010  -0.01001   3.13077
    D3       -3.14112  -0.00208   0.00000  -0.02323  -0.02274   3.11932
    D4       -0.00091  -0.00351   0.00000  -0.03964  -0.03894  -0.03985
    D5        0.00026  -0.00013   0.00000  -0.00198  -0.00199  -0.00173
    D6        3.14140  -0.00102   0.00000  -0.01173  -0.01184   3.12957
    D7       -3.14124   0.00246   0.00000   0.02757   0.02818  -3.11306
    D8       -0.00010   0.00157   0.00000   0.01781   0.01833   0.01823
    D9        1.57146  -0.00228   0.00000  -0.03294  -0.03293   1.53853
   D10       -1.57022  -0.00487   0.00000  -0.06249  -0.06249  -1.63272
   D11       -0.00099  -0.00048   0.00000  -0.00571  -0.00560  -0.00659
   D12        3.14093  -0.00070   0.00000  -0.00805  -0.00808   3.13285
   D13       -3.14120   0.00097   0.00000   0.01075   0.01114  -3.13007
   D14        0.00072   0.00074   0.00000   0.00840   0.00866   0.00937
   D15        2.85053   0.00303   0.00000   0.03898   0.03910   2.88963
   D16       -0.29245   0.00158   0.00000   0.02254   0.02242  -0.27003
   D17        0.00060   0.00007   0.00000   0.00077   0.00076   0.00136
   D18       -3.14153   0.00022   0.00000   0.00253   0.00248  -3.13905
   D19       -3.14132   0.00029   0.00000   0.00311   0.00324  -3.13808
   D20       -0.00026   0.00044   0.00000   0.00487   0.00496   0.00470
   D21        0.00023   0.00031   0.00000   0.00357   0.00350   0.00373
   D22       -3.14158   0.00028   0.00000   0.00326   0.00330  -3.13828
   D23       -3.14083   0.00016   0.00000   0.00181   0.00178  -3.13905
   D24        0.00054   0.00013   0.00000   0.00150   0.00158   0.00212
   D25       -0.00066  -0.00028   0.00000  -0.00296  -0.00289  -0.00355
   D26        3.14138   0.00061   0.00000   0.00679   0.00705  -3.13475
   D27        3.14116  -0.00025   0.00000  -0.00266  -0.00269   3.13846
   D28        0.00001   0.00064   0.00000   0.00710   0.00725   0.00726
   D29       -2.63914  -0.02357   0.00000  -0.23400  -0.23396  -2.87310
   D30        0.50245  -0.02258   0.00000  -0.22115  -0.22119   0.28126
   D31       -1.47062   0.01515   0.00000   0.14155   0.14077  -1.32986
   D32        1.67097   0.02027   0.00000   0.20782   0.20860   1.87957
   D33        0.85221  -0.00081   0.00000  -0.00791  -0.00793   0.84428
   D34        2.94661  -0.00051   0.00000  -0.00590  -0.00597   2.94064
   D35       -1.24218   0.00008   0.00000  -0.00191  -0.00187  -1.24405
   D36       -2.28938   0.00018   0.00000   0.00495   0.00496  -2.28442
   D37       -0.19498   0.00048   0.00000   0.00696   0.00692  -0.18806
   D38        1.89941   0.00107   0.00000   0.01095   0.01102   1.91043
   D39        2.09309  -0.00054   0.00000  -0.02000  -0.01960   2.07349
   D40       -2.09570  -0.00341   0.00000  -0.03934  -0.03917  -2.13488
   D41       -0.00131  -0.00388   0.00000  -0.04250  -0.04224  -0.04354
   D42       -1.04851   0.00455   0.00000   0.04604   0.04589  -1.00262
   D43        1.04589   0.00168   0.00000   0.02671   0.02632   1.07220
   D44        3.14028   0.00122   0.00000   0.02354   0.02325  -3.11965
         Item               Value     Threshold  Converged?
 Maximum Force            0.060600     0.000450     NO 
 RMS     Force            0.011966     0.000300     NO 
 Maximum Displacement     0.779277     0.001800     NO 
 RMS     Displacement     0.279113     0.001200     NO 
 Predicted change in Energy=-3.693626D-02
 GradGradGradGradGradGradGradGradGradGradGradGradGradGradGradGradGradGrad

                          Input orientation:                          
 ---------------------------------------------------------------------
 Center     Atomic      Atomic             Coordinates (Angstroms)
 Number     Number       Type             X           Y           Z
 ---------------------------------------------------------------------
      1          6           0       -0.364966    0.516298   -0.052164
      2          6           0        1.038014    0.575979   -0.035821
      3          6           0        1.671542    1.829955   -0.075006
      4          6           0        0.913439    3.001286   -0.137460
      5          6           0       -0.479722    2.939134   -0.159964
      6          6           0       -1.113764    1.694092   -0.114970
      7          1           0        2.757713    1.888061   -0.054546
      8          1           0        1.417663    3.966778   -0.169726
      9          1           0       -1.070549    3.853443   -0.211814
     10          1           0       -2.200791    1.633124   -0.138413
     11          7           0       -0.983537   -0.780908   -0.039442
     12          7           0        1.776376   -0.635040    0.041799
     13          6           0       -1.249039   -1.374487    1.065712
     14          1           0       -1.470935   -2.436929    1.005352
     15          6           0        3.024270   -0.856331   -0.174565
     16          1           0        3.409501   -0.901636   -1.199505
     17          6           0       -1.295189   -0.718454    2.445717
     18          1           0       -1.891368    0.188329    2.395046
     19          1           0       -1.738422   -1.396488    3.173976
     20          1           0       -0.289581   -0.458794    2.776083
     21          6           0        4.012528   -1.150232    0.938027
     22          1           0        4.463237   -2.138070    0.819050
     23          1           0        4.808177   -0.404460    0.894995
     24          1           0        3.498577   -1.093445    1.893530
 ---------------------------------------------------------------------
                    Distance matrix (angstroms):
                    1          2          3          4          5
     1  C    0.000000
     2  C    1.404344   0.000000
     3  C    2.423547   1.405470   0.000000
     4  C    2.795847   2.430630   1.396652   0.000000
     5  C    2.427947   2.811305   2.421866   1.394728   0.000000
     6  C    1.397083   2.426230   2.788903   2.412221   1.397914
     7  H    3.410699   2.163163   1.087917   2.155804   3.405416
     8  H    3.885537   3.414613   2.153936   1.089706   2.157827
     9  H    3.414656   3.901126   3.410614   2.160535   1.089828
    10  H    2.150580   3.408510   3.877850   3.401514   2.160603
    11  N    1.437197   2.434712   3.723884   4.232389   3.755938
    12  N    2.433054   1.420482   2.469986   3.741612   4.231478
    13  C    2.367762   3.201297   4.483244   5.027059   4.549886
    14  H    3.326118   4.056659   5.408201   6.046936   5.589501
    15  C    3.658690   2.452748   3.009305   4.397521   5.165630
    16  H    4.192079   3.026790   3.427330   4.753006   5.564011
    17  C    2.937573   3.643820   4.652948   5.038581   4.564264
    18  H    2.902809   3.826312   4.635776   4.710971   4.010953
    19  H    3.994135   4.679960   5.709087   6.110515   5.612228
    20  H    2.992569   3.277205   4.148865   4.680613   4.494713
    21  C    4.787510   3.574341   3.922750   5.291136   6.173233
    22  H    5.578192   4.452978   4.933368   6.318936   7.153273
    23  H    5.339130   4.005222   3.971397   5.275799   6.344639
    24  H    4.615622   3.544537   3.969818   5.251160   6.025396
                    6          7          8          9         10
     6  C    0.000000
     7  H    3.876804   0.000000
     8  H    3.402385   2.475896   0.000000
     9  H    2.161953   4.306165   2.491148   0.000000
    10  H    1.088988   4.965762   4.305825   2.492519   0.000000
    11  N    2.479575   4.595713   5.321960   4.638372   2.705376
    12  N    3.715150   2.708938   4.620621   5.321257   4.582020
    13  C    3.290667   5.287084   6.096451   5.384718   3.376608
    14  H    4.295117   6.140879   7.122659   6.419547   4.290248
    15  C    4.861228   2.759918   5.083659   6.241066   5.787915
    16  H    5.326720   3.085153   5.359973   6.607357   6.247104
    17  C    3.522841   5.428743   6.012612   5.292936   3.609399
    18  H    3.028559   5.523002   5.639540   4.571927   2.932847
    19  H    4.556210   6.436370   7.064407   6.282627   4.512678
    20  H    3.697619   4.775584   5.583741   5.304039   4.064866
    21  C    5.956329   3.433801   5.843306   7.224719   6.892832
    22  H    6.830871   4.458892   6.893647   8.220931   7.716729
    23  H    6.363437   3.218957   5.633555   7.342628   7.371928
    24  H    5.751358   3.637755   5.847485   7.055571   6.636699
                   11         12         13         14         15
    11  N    0.000000
    12  N    2.764958   0.000000
    13  C    1.282261   3.278462   0.000000
    14  H    2.017810   3.836700   1.087044   0.000000
    15  C    4.010793   1.285700   4.479725   4.908907   0.000000
    16  H    4.545228   2.068576   5.201614   5.571102   1.095881
    17  C    2.505403   3.901319   1.528700   2.249155   5.053971
    18  H    2.773141   4.434868   2.149910   2.999999   5.644264
    19  H    3.357804   4.769082   2.164431   2.420124   5.847028
    20  H    2.917622   3.431553   2.164353   2.905875   4.454882
    21  C    5.104166   2.463539   5.267891   5.632805   1.516870
    22  H    5.678577   3.175286   5.768361   5.944613   2.168122
    23  H    5.878676   3.157994   6.136771   6.600785   2.128490
    24  H    4.891156   2.570024   4.827434   5.223970   2.134997
                   16         17         18         19         20
    16  H    0.000000
    17  C    5.954436   0.000000
    18  H    6.496771   1.086394   0.000000
    19  H    6.772985   1.089288   1.772504   0.000000
    20  H    5.448360   1.089868   1.769090   1.771081   0.000000
    21  C    2.234834   5.534566   6.226607   6.175235   4.729131
    22  H    2.591079   6.149864   6.948158   6.675042   5.407331
    23  H    2.567178   6.305110   6.890969   7.002559   5.434021
    24  H    3.100257   4.840013   5.562910   5.399771   3.941044
                   21         22         23         24
    21  C    0.000000
    22  H    1.092300   0.000000
    23  H    1.091368   1.769224   0.000000
    24  H    1.086442   1.782223   1.785168   0.000000
 Stoichiometry    C10H12N2
 Framework group  C1[X(C10H12N2)]
 Deg. of freedom    66
 Full point group                 C1      NOp   1
 Largest Abelian subgroup         C1      NOp   1
 Largest concise Abelian subgroup C1      NOp   1
                         Standard orientation:                         
 ---------------------------------------------------------------------
 Center     Atomic      Atomic             Coordinates (Angstroms)
 Number     Number       Type             X           Y           Z
 ---------------------------------------------------------------------
      1          6           0       -0.963572   -0.072605   -0.522294
      2          6           0        0.297505    0.485447   -0.256880
      3          6           0        0.376324    1.801782    0.229327
      4          6           0       -0.786216    2.547195    0.437891
      5          6           0       -2.037198    1.992916    0.167546
      6          6           0       -2.120169    0.681858   -0.310373
      7          1           0        1.347728    2.241075    0.446028
      8          1           0       -0.710429    3.567494    0.812998
      9          1           0       -2.943739    2.576256    0.327619
     10          1           0       -3.091158    0.240919   -0.530937
     11          7           0       -1.010897   -1.410525   -1.045041
     12          7           0        1.457584   -0.306688   -0.467855
     13          6           0       -1.036249   -2.424774   -0.260917
     14          1           0       -0.812897   -3.390113   -0.708016
     15          6           0        2.693311    0.041340   -0.537697
     16          1           0        3.082802    0.524410   -1.440967
     17          6           0       -1.366113   -2.394592    1.231465
     18          1           0       -2.274563   -1.820070    1.389242
     19          1           0       -1.513679   -3.405885    1.608372
     20          1           0       -0.554816   -1.927926    1.789885
     21          6           0        3.696367   -0.261339    0.559189
     22          1           0        4.507069   -0.895206    0.193000
     23          1           0        4.127329    0.682069    0.898801
     24          1           0        3.185604   -0.755898    1.380706
 ---------------------------------------------------------------------
 Rotational constants (GHZ):           1.0830944           0.8296177           0.5368021
 Standard basis: 6-31G(d) (6D, 7F)
 There are   204 symmetry adapted cartesian basis functions of A   symmetry.
 There are   204 symmetry adapted basis functions of A   symmetry.
   204 basis functions,   384 primitive gaussians,   204 cartesian basis functions
    43 alpha electrons       43 beta electrons
       nuclear repulsion energy       648.0609750880 Hartrees.
 NAtoms=   24 NActive=   24 NUniq=   24 SFac= 1.00D+00 NAtFMM=   60 NAOKFM=F Big=F
 Integral buffers will be    131072 words long.
 Raffenetti 2 integral format.
 Two-electron integral symmetry is turned on.
 ------------------------------------------------------------------------------
 Polarizable Continuum Model (PCM)
 =================================
 Model                : PCM.
 Atomic radii         : SMD-Coulomb.
 Polarization charges : Total charges.
 Charge compensation  : None.
 Solution method      : On-the-fly selection.
 Cavity type          : VdW (van der Waals Surface) (Alpha=1.000).
 Cavity algorithm     : GePol (No added spheres)
                        Default sphere list used, NSphG=   24.
                        Lebedev-Laikov grids with approx.  5.0 points / Ang**2.
                        Smoothing algorithm: York/Karplus (Gamma=1.0000).
                        Polarization charges: spherical gaussians, with
                                              point-specific exponents (IZeta= 3).
                        Self-potential: point-specific (ISelfS= 7).
                        Self-field    : sphere-specific E.n sum rule (ISelfD= 2).
 1st derivatives      : Analytical E(r).r(x)/FMM algorithm (CHGder, D1EAlg=3).
                        Cavity 1st derivative terms included.
 Solvent              : Toluene, Eps=   2.374100 Eps(inf)=   2.238315
 ------------------------------------------------------------------------------
 ------------------------------------------------------------------------------
 Atomic radii for non-electrostatic terms: SMD-CDS.
 ------------------------------------------------------------------------------
 Nuclear repulsion after PCM non-electrostatic terms =      648.0548544243 Hartrees.
 One-electron integrals computed using PRISM.
 NBasis=   204 RedAO= T EigKep=  3.68D-04  NBF=   204
 NBsUse=   204 1.00D-06 EigRej= -1.00D+00 NBFU=   204
 Initial guess from the checkpoint file:  "benzNCHCH3.chk"
 B after Tr=     0.000000    0.000000    0.000000
         Rot=    0.987811   -0.030302   -0.015066   -0.151935 Ang= -17.91 deg.
 ExpMin= 1.61D-01 ExpMax= 4.17D+03 ExpMxC= 6.27D+02 IAcc=3 IRadAn=         5 AccDes= 0.00D+00
 Harris functional with IExCor=  402 and IRadAn=       5 diagonalized for initial guess.
 HarFok:  IExCor=  402 AccDes= 0.00D+00 IRadAn=         5 IDoV= 1 UseB2=F ITyADJ=14
 ICtDFT=  3500011 ScaDFX=  1.000000  1.000000  1.000000  1.000000
 FoFCou: FMM=F IPFlag=           0 FMFlag=      100000 FMFlg1=           0
         NFxFlg=           0 DoJE=T BraDBF=F KetDBF=T FulRan=T
         wScrn=  0.000000 ICntrl=       500 IOpCl=  0 I1Cent=   200000004 NGrid=           0
         NMat0=    1 NMatS0=      1 NMatT0=    0 NMatD0=    1 NMtDS0=    0 NMtDT0=    0
 Petite list used in FoFCou.
 Requested convergence on RMS density matrix=1.00D-08 within 128 cycles.
 Requested convergence on MAX density matrix=1.00D-06.
 Requested convergence on             energy=1.00D-06.
 No special actions if energy rises.
 Inv3:  Mode=1 IEnd=    11302443.
 Iteration    1 A*A^-1 deviation from unit magnitude is 4.22D-15 for   1921.
 Iteration    1 A*A^-1 deviation from orthogonality  is 2.44D-15 for    572    228.
 Iteration    1 A^-1*A deviation from unit magnitude is 4.22D-15 for   1921.
 Iteration    1 A^-1*A deviation from orthogonality  is 2.59D-15 for   1919    736.
 Error on total polarization charges =  0.02611
 SCF Done:  E(RB3LYP) =  -497.720282899     A.U. after   14 cycles
            NFock= 14  Conv=0.80D-08     -V/T= 2.0101
 SMD-CDS (non-electrostatic) energy       (kcal/mol) =      -3.84
 (included in total energy above)
 D1PCM: PCM CHGder 1st derivatives, ID1Alg=3 FixD1E=F DoIter=F DoCFld=F I1PDM=0.
 Calling FoFJK, ICntrl=      2127 FMM=F ISym2X=0 I1Cent= 0 IOpClX= 0 NMat=1 NMatS=1 NMatT=0.
 ***** Axes restored to original set *****
 -------------------------------------------------------------------
 Center     Atomic                   Forces (Hartrees/Bohr)
 Number     Number              X              Y              Z
 -------------------------------------------------------------------
      1        6          -0.026755457   -0.005138127    0.007648250
      2        6           0.010216841   -0.038108603   -0.018085616
      3        6           0.001944382    0.004263806   -0.002449293
      4        6          -0.000234126    0.000295589    0.001107391
      5        6          -0.000658070    0.003503277   -0.001171075
      6        6           0.000131741   -0.000284086   -0.000089485
      7        1          -0.001206970   -0.001515127    0.000166673
      8        1          -0.000129358   -0.001986005    0.000119571
      9        1           0.000854546   -0.002155388    0.000173615
     10        1           0.001558938   -0.001161006    0.000183991
     11        7           0.016785575   -0.005233580    0.001826941
     12        7           0.019687939    0.046715871    0.024428961
     13        6           0.001583449    0.021361114    0.000038178
     14        1          -0.007919162   -0.002851394   -0.001216948
     15        6          -0.020296148   -0.008600833    0.006308200
     16        1           0.007402028    0.008346613   -0.005068393
     17        6           0.002845065   -0.012462472   -0.011582582
     18        1          -0.001386362    0.005163227    0.001226223
     19        1          -0.000901451   -0.001772250    0.002552744
     20        1           0.003718468    0.002054336    0.002100719
     21        6          -0.014977350   -0.010776864   -0.010760596
     22        1           0.004704736   -0.002667628    0.000078455
     23        1           0.003545552    0.002677978   -0.001768649
     24        1          -0.000514805    0.000331552    0.004232723
 -------------------------------------------------------------------
 Cartesian Forces:  Max     0.046715871 RMS     0.010748673

 GradGradGradGradGradGradGradGradGradGradGradGradGradGradGradGradGradGrad
 Berny optimization.
 Using GEDIIS/GDIIS optimizer.
 FormGI is forming the generalized inverse of G from B-inverse, IUseBI=4.
 Internal  Forces:  Max     0.032402281 RMS     0.006409517
 Search for a local minimum.
 Step number   2 out of a maximum of  116
 All quantities printed in internal units (Hartrees-Bohrs-Radians)
 Mixed Optimization -- RFO/linear search
 Update second derivatives using D2CorX and points    1    2
 DE= -4.00D-02 DEPred=-3.69D-02 R= 1.08D+00
 TightC=F SS=  1.41D+00  RLast= 5.23D-01 DXNew= 5.0454D-01 1.5687D+00
 Trust test= 1.08D+00 RLast= 5.23D-01 DXMaxT set to 5.05D-01
 ITU=  1  0
 Use linear search instead of GDIIS.
     Eigenvalues ---    0.00237   0.00237   0.00766   0.00776   0.00943
     Eigenvalues ---    0.01022   0.01886   0.01918   0.02119   0.02152
     Eigenvalues ---    0.02154   0.02155   0.02155   0.02156   0.02157
     Eigenvalues ---    0.02368   0.03592   0.07041   0.07071   0.07174
     Eigenvalues ---    0.07374   0.15593   0.15992   0.15999   0.16000
     Eigenvalues ---    0.16000   0.16000   0.16000   0.16000   0.16000
     Eigenvalues ---    0.16000   0.16000   0.16180   0.20280   0.22000
     Eigenvalues ---    0.22020   0.22479   0.23107   0.24488   0.24994
     Eigenvalues ---    0.24999   0.27054   0.28237   0.28699   0.32778
     Eigenvalues ---    0.33714   0.33722   0.33724   0.34012   0.35865
     Eigenvalues ---    0.37214   0.37230   0.37230   0.37230   0.37230
     Eigenvalues ---    0.37230   0.37230   0.39721   0.42240   0.42397
     Eigenvalues ---    0.46331   0.46429   0.46472   0.47118   0.68355
     Eigenvalues ---    0.69377
 RFO step:  Lambda=-2.55128764D-02 EMin= 2.36812404D-03
 Quartic linear search produced a step of  0.97813.
 Iteration  1 RMS(Cart)=  0.22368429 RMS(Int)=  0.05260620
 Iteration  2 RMS(Cart)=  0.14490339 RMS(Int)=  0.02402767
 Iteration  3 RMS(Cart)=  0.08770136 RMS(Int)=  0.00467422
 Iteration  4 RMS(Cart)=  0.00679221 RMS(Int)=  0.00032279
 Iteration  5 RMS(Cart)=  0.00003191 RMS(Int)=  0.00032218
 Iteration  6 RMS(Cart)=  0.00000002 RMS(Int)=  0.00032218
 Variable       Old X    -DE/DX   Delta X   Delta X   Delta X     New X
                                 (Linear)    (Quad)   (Total)
    R1        2.65383   0.00961   0.01698   0.02301   0.04010   2.69392
    R2        2.64011  -0.00168   0.00417  -0.00904  -0.00482   2.63528
    R3        2.71591  -0.01203  -0.06063  -0.00752  -0.06815   2.64776
    R4        2.65595   0.00132   0.01989  -0.01015   0.00979   2.66574
    R5        2.68432  -0.02999  -0.09153  -0.06703  -0.15856   2.52577
    R6        2.63929  -0.00065   0.00226  -0.00453  -0.00232   2.63696
    R7        2.05587  -0.00128  -0.02174   0.01140  -0.01034   2.04552
    R8        2.63565   0.00046  -0.00018   0.00092   0.00063   2.63629
    R9        2.05925  -0.00182  -0.01844   0.00601  -0.01242   2.04682
   R10        2.64167   0.00115   0.00513  -0.00030   0.00478   2.64646
   R11        2.05948  -0.00228  -0.01836   0.00368  -0.01468   2.04479
   R12        2.05789  -0.00150  -0.01962   0.00861  -0.01102   2.04687
   R13        2.42312  -0.01083  -0.02096  -0.01161  -0.03257   2.39055
   R14        2.42962  -0.01653  -0.01460  -0.03072  -0.04532   2.38430
   R15        2.05422   0.00447   0.03150  -0.00510   0.02640   2.08062
   R16        2.88882  -0.00829  -0.02089  -0.03053  -0.05142   2.83741
   R17        2.07092   0.00700   0.04784  -0.00680   0.04104   2.11195
   R18        2.86647  -0.00872  -0.04275  -0.01463  -0.05739   2.80908
   R19        2.05299   0.00501   0.03030  -0.00167   0.02863   2.08162
   R20        2.05846   0.00318   0.03565  -0.01430   0.02135   2.07981
   R21        2.05955   0.00456   0.03672  -0.00891   0.02781   2.08736
   R22        2.06415   0.00435   0.04122  -0.01349   0.02773   2.09188
   R23        2.06239   0.00448   0.03950  -0.01147   0.02802   2.09041
   R24        2.05308   0.00398   0.03039  -0.00641   0.02398   2.07706
    A1        2.09457  -0.00110   0.00019  -0.00541  -0.00536   2.08920
    A2        2.05809   0.00055  -0.03546   0.03297  -0.00301   2.05508
    A3        2.13015   0.00050   0.03490  -0.02803   0.00623   2.13637
    A4        2.08049  -0.00143  -0.01374   0.00475  -0.00897   2.07153
    A5        2.07567   0.00265  -0.01799   0.03152   0.01315   2.08882
    A6        2.12688  -0.00123   0.03160  -0.03663  -0.00546   2.12143
    A7        2.10000   0.00027   0.00558  -0.00284   0.00276   2.10276
    A8        2.09112  -0.00163  -0.00342  -0.01253  -0.01607   2.07505
    A9        2.09206   0.00136  -0.00217   0.01533   0.01302   2.10508
   A10        2.10080   0.00116   0.00637   0.00022   0.00654   2.10734
   A11        2.08660  -0.00141  -0.00730  -0.00426  -0.01154   2.07506
   A12        2.09578   0.00025   0.00093   0.00404   0.00500   2.10078
   A13        2.08544   0.00011  -0.00884   0.00567  -0.00321   2.08222
   A14        2.10007   0.00041   0.00535   0.00079   0.00617   2.10624
   A15        2.09768  -0.00052   0.00349  -0.00647  -0.00296   2.09473
   A16        2.10505   0.00100   0.01042  -0.00230   0.00822   2.11326
   A17        2.08148  -0.00178  -0.01277  -0.00411  -0.01696   2.06452
   A18        2.09661   0.00078   0.00230   0.00644   0.00865   2.10526
   A19        2.11131  -0.00259   0.01654  -0.03120  -0.01466   2.09665
   A20        2.26797   0.03240   0.16978   0.06555   0.23533   2.50330
   A21        2.03404  -0.00327  -0.05710   0.02698  -0.03014   2.00389
   A22        2.19646   0.00633   0.09596  -0.03844   0.05750   2.25397
   A23        2.05262  -0.00307  -0.03892   0.01160  -0.02734   2.02528
   A24        2.10099   0.00258   0.00257   0.02462   0.02652   2.12750
   A25        2.14393   0.00232   0.05039  -0.02722   0.02255   2.16648
   A26        2.03640  -0.00499  -0.05479   0.00543  -0.04994   1.98646
   A27        1.90992   0.00229  -0.00070   0.02407   0.02325   1.93316
   A28        1.92697   0.00030   0.01598  -0.01089   0.00490   1.93188
   A29        1.92626   0.00088   0.01529  -0.00847   0.00672   1.93299
   A30        1.90438  -0.00059  -0.00611   0.00499  -0.00133   1.90306
   A31        1.89824  -0.00215  -0.01213  -0.01207  -0.02423   1.87400
   A32        1.89767  -0.00080  -0.01268   0.00229  -0.01055   1.88712
   A33        1.94353   0.00317   0.03218   0.00068   0.03234   1.97587
   A34        1.88984  -0.00297  -0.02034  -0.01529  -0.03536   1.85448
   A35        1.90366   0.00257  -0.00682   0.03664   0.02917   1.93282
   A36        1.88901  -0.00193  -0.02115  -0.00894  -0.02968   1.85933
   A37        1.91587  -0.00089   0.00512  -0.00236   0.00152   1.91738
   A38        1.92180  -0.00001   0.01092  -0.01161  -0.00055   1.92125
    D1        0.00675  -0.00013   0.00605  -0.01367  -0.00773  -0.00097
    D2        3.13077  -0.00142  -0.00979  -0.03656  -0.04642   3.08435
    D3        3.11932  -0.00183  -0.02225  -0.03162  -0.05318   3.06614
    D4       -0.03985  -0.00312  -0.03809  -0.05451  -0.09187  -0.13172
    D5       -0.00173  -0.00001  -0.00194   0.00172  -0.00024  -0.00197
    D6        3.12957  -0.00040  -0.01158   0.00394  -0.00769   3.12187
    D7       -3.11306   0.00176   0.02756   0.01938   0.04758  -3.06548
    D8        0.01823   0.00138   0.01793   0.02160   0.04013   0.05836
    D9        1.53853  -0.00075  -0.03221   0.02437  -0.00777   1.53076
   D10       -1.63272  -0.00251  -0.06113   0.00646  -0.05474  -1.68746
   D11       -0.00659   0.00030  -0.00547   0.01956   0.01422   0.00763
   D12        3.13285  -0.00038  -0.00790  -0.00169  -0.00940   3.12345
   D13       -3.13007   0.00158   0.01089   0.04242   0.05347  -3.07659
   D14        0.00937   0.00091   0.00847   0.02117   0.02986   0.03923
   D15        2.88963   0.00152   0.03825  -0.00917   0.02931   2.91894
   D16       -0.27003   0.00019   0.02193  -0.03224  -0.01055  -0.28057
   D17        0.00136  -0.00032   0.00074  -0.01348  -0.01286  -0.01150
   D18       -3.13905  -0.00026   0.00242  -0.01388  -0.01160   3.13254
   D19       -3.13808   0.00035   0.00317   0.00782   0.01121  -3.12687
   D20        0.00470   0.00042   0.00485   0.00742   0.01247   0.01716
   D21        0.00373   0.00019   0.00342   0.00133   0.00471   0.00844
   D22       -3.13828   0.00018   0.00323   0.00111   0.00443  -3.13385
   D23       -3.13905   0.00012   0.00174   0.00173   0.00342  -3.13563
   D24        0.00212   0.00011   0.00154   0.00151   0.00314   0.00526
   D25       -0.00355  -0.00001  -0.00283   0.00457   0.00185  -0.00170
   D26       -3.13475   0.00039   0.00689   0.00240   0.00963  -3.12513
   D27        3.13846  -0.00000  -0.00263   0.00479   0.00213   3.14059
   D28        0.00726   0.00040   0.00709   0.00261   0.00990   0.01716
   D29       -2.87310  -0.01320  -0.22884  -0.05660  -0.28540   3.12469
   D30        0.28126  -0.01293  -0.21635  -0.07018  -0.28657  -0.00531
   D31       -1.32986   0.01990   0.13769   0.42056   0.55735  -0.77250
   D32        1.87957   0.02186   0.20404   0.36900   0.57394   2.45351
   D33        0.84428  -0.00077  -0.00776  -0.00971  -0.01755   0.82673
   D34        2.94064   0.00014  -0.00584   0.00495  -0.00088   2.93976
   D35       -1.24405  -0.00010  -0.00183  -0.00472  -0.00651  -1.25056
[...]
 ,-0.00006362,0.00020437,-0.00115596,0.00049021,0.00000702,0.00034314,0
 .00044767,0.00000221,0.00001492,0.00003333,0.00001486,0.00003155,0.000
 04721,-0.00003207,0.00001201,-0.00002312,0.00018923,-0.00014284,-0.000
 08422,-0.01985610,-0.00729004,0.03781455,0.00006814,0.00014290,0.00021
 584,-0.00003489,-0.00003303,-0.00001451,-0.08332680,-0.03901312,0.0571
 1908,0.09191790,-0.00073279,0.00131095,-0.00000821,-0.00046001,-0.0038
 3229,-0.00608881,0.00024240,0.00001245,-0.00068479,-0.00021285,-0.0001
 9706,0.00044655,-0.00017578,0.00037789,-0.00007594,0.00012832,-0.00024
 945,0.00035069,0.00064789,-0.00084331,-0.00036873,0.00007182,-0.000042
 60,-0.00012107,0.00000817,-0.00000311,-0.00003389,-0.00002899,0.000005
 38,-0.00004675,0.00020424,-0.00048524,-0.00032340,0.00509380,0.0181502
 9,0.00639930,-0.00014928,-0.00002424,0.00032275,-0.00002708,-0.0000046
 9,0.00000513,-0.03974575,-0.13207777,0.10502175,0.03956790,0.12579284,
 -0.00041557,0.00085198,-0.00016679,-0.00587898,-0.00434351,-0.00179452
 ,0.00214175,-0.00080631,0.00029320,-0.00104511,-0.00043776,-0.00009128
 ,0.00027637,0.00032217,-0.00002818,-0.00000903,-0.00034105,0.00026127,
 -0.00049591,-0.00061054,-0.00014300,0.00011000,-0.00014645,0.00005335,
 -0.00002359,-0.00001340,-0.00000790,0.00003203,-0.00003481,-0.00005461
 ,0.00025793,-0.00018029,-0.00018048,0.02181491,0.01807268,-0.00077514,
 -0.00014914,-0.00021009,0.00020377,0.00000575,0.00001186,-0.00000283,0
 .05944478,0.10273263,-0.19491048,-0.08127919,-0.12421571,0.19939983,-0
 .00973325,0.00266219,0.00138968,0.00020443,-0.00065775,0.00053436,-0.0
 0055862,0.00004302,-0.00013994,0.00016003,0.00038636,-0.00003654,0.000
 02310,-0.00036608,-0.00066986,0.00058890,0.00129712,-0.00018727,-0.000
 02051,-0.00009796,0.00004653,-0.00000415,0.00001722,0.00006959,0.00000
 845,0.00007946,-0.00000847,-0.00011282,0.00025981,0.00021619,0.0324425
 2,-0.00488402,0.00318993,-0.00061606,-0.00041955,0.00127415,-0.0908172
 3,-0.01489233,-0.02031507,0.00502933,-0.00608550,-0.01002093,-0.000091
 70,-0.00018477,0.00015923,-0.00006292,0.00002995,0.00002380,0.53937672
 ,0.00713572,0.00389724,0.00321612,-0.00059189,0.00088341,-0.00008801,0
 .00047837,-0.00004762,-0.00020514,-0.00004830,-0.00048032,0.00004145,-
 0.00005092,-0.00002009,0.00018861,-0.00006443,-0.00103009,-0.00070526,
 -0.00001863,0.00009927,0.00004386,-0.00000693,-0.00002025,-0.00001165,
 -0.00000863,-0.00006696,0.00003858,-0.00004549,-0.00000012,0.00002740,
 -0.00605673,0.01479678,0.01921499,-0.00077652,0.00002707,0.00051556,-0
 .01804999,-0.11668667,-0.04780102,-0.00932442,-0.00529011,-0.02685674,
 0.00032470,-0.00022618,-0.00000047,-0.00009122,-0.00002480,0.00011802,
 0.01815037,0.59034683,-0.00151946,-0.00612357,0.00080870,0.00039762,0.
 00146791,-0.00027142,0.00014973,-0.00008179,-0.00005824,0.00021696,0.0
 0025667,0.00002158,-0.00012159,-0.00020752,0.00000939,0.00000400,0.000
 72146,-0.00029672,0.00007868,0.00009071,0.00000008,0.00002412,0.000042
 43,-0.00002568,-0.00001834,0.00008309,-0.00001794,0.00001688,-0.000063
 54,0.00001724,-0.00340521,0.00370973,-0.04073472,0.00011375,0.00001937
 ,-0.00082621,-0.02403465,-0.04626546,-0.18490883,0.00048790,0.00011067
 ,-0.00072811,-0.00013582,0.00020415,-0.00014930,0.00005276,-0.00005781
 ,-0.00001874,-0.02106908,-0.01862357,0.49369027,0.00015350,0.00074679,
 0.00036754,0.00024588,-0.00021144,0.00047249,-0.00011371,-0.00039299,0
 .00008765,-0.00022589,0.00005861,-0.00007850,0.00018269,0.00029822,-0.
 00000110,-0.00003088,-0.00011369,0.00013258,-0.00002067,-0.00001966,0.
 00000042,-0.00000854,0.00000677,-0.00001032,-0.00000397,0.00000732,-0.
 00001003,-0.00003427,0.00000051,-0.00006905,-0.00037372,-0.00005185,0.
 00143986,-0.00009515,0.00012891,-0.00028553,-0.00322296,-0.00766090,-0
 .00212523,0.00141482,-0.00080905,-0.00171055,-0.00010013,0.00010268,0.
 00001038,0.00005029,0.00001028,-0.00000877,-0.05709334,-0.04755587,0.0
 0076560,0.05621483,0.00001521,0.00015520,0.00053288,-0.00026964,0.0003
 2973,0.00021936,0.00001651,0.00017955,0.00006810,0.00010038,-0.0000368
 9,0.00003462,-0.00009147,-0.00009038,0.00000023,-0.00000554,0.00030846
 ,0.00026780,0.00001825,0.00000522,-0.00003005,0.00000198,-0.00000441,0
 .00000611,0.00000752,0.00000690,-0.00000626,0.00001319,-0.00003365,-0.
 00005674,-0.00014752,0.00087381,0.00067156,-0.00002827,-0.00008488,0.0
 0033925,-0.00231171,-0.00965979,-0.00046219,0.00025521,0.00061111,-0.0
 0146828,0.00011917,-0.00014236,0.00007004,-0.00007545,0.00000702,0.000
 00413,-0.04773859,-0.31410593,-0.00960542,0.05363431,0.33901226,0.0008
 4558,0.00007739,-0.00016066,0.00091797,0.00044196,-0.00065818,0.000178
 55,0.00011783,-0.00003495,0.00013825,-0.00008528,0.00001530,-0.0002146
 1,-0.00009648,-0.00008577,-0.00011977,0.00072601,-0.00028874,-0.000013
 59,0.00003079,0.00000716,-0.00000695,-0.00002104,0.00000513,0.00001260
 ,-0.00001382,0.00000443,0.00000667,-0.00003524,0.00003496,-0.00077686,
 0.00175809,0.00253050,-0.00023957,0.00028224,-0.00005531,-0.00634887,-
 0.03532460,0.00162378,-0.00155922,-0.00144454,-0.00534610,0.00008888,-
 0.00007608,0.00000729,-0.00003865,-0.00002914,0.00001512,0.00093490,-0
 .00663584,-0.05097101,0.00187160,0.00958042,0.05234946,0.00022187,-0.0
 0011898,-0.00009786,-0.00021212,0.00024515,-0.00007596,0.00006439,-0.0
 0001348,-0.00003897,0.00002435,-0.00003224,0.00001002,-0.00004015,-0.0
 0002417,0.00003280,-0.00001000,0.00005518,0.00001268,0.00000213,0.0000
 1045,-0.00001013,-0.00000020,-0.00001428,0.00000664,0.00000924,-0.0000
 1131,-0.00000195,0.00001653,-0.00001135,-0.00001534,-0.00163281,0.0005
 4127,-0.00157389,-0.00045548,-0.00008894,0.00061085,0.00760476,0.00188
 474,-0.00685900,0.00039650,0.00040450,0.00065328,0.00023525,-0.0002002
 2,0.00006264,-0.00009368,-0.00000059,0.00005900,-0.20266278,-0.0473701
 9,0.12287806,-0.00309355,-0.00029931,0.00110318,0.21979522,-0.00012835
 ,-0.00115919,0.00030505,-0.00001309,0.00022235,0.00021332,0.00016207,0
 .00024894,-0.00003158,0.00018895,-0.00006529,0.00005001,-0.00025006,-0
 .00013238,0.00002328,-0.00003705,0.00062135,-0.00016222,0.00001699,0.0
 0003005,-0.00001425,0.00000622,-0.00000186,0.00000234,0.00000708,0.000
 01479,0.00000810,0.00004373,-0.00005679,0.00000659,-0.00196613,0.00117
 443,-0.00166984,0.00018110,0.00005303,-0.00002213,0.01091549,0.0017974
 1,-0.00395155,0.00001817,0.00035269,0.00056837,-0.00002027,0.00000213,
 0.00000938,-0.00001127,-0.00001220,-0.00002872,-0.04836593,-0.06509978
 ,0.03294664,-0.02456984,-0.00364662,0.01944264,0.05173197,0.06223547,0
 .00062832,-0.00255621,0.00010481,-0.00030313,0.00043430,0.00007545,0.0
 0019826,0.00000857,-0.00000400,0.00008693,0.00002207,0.00000664,-0.000
 14477,-0.00004626,0.00009150,0.00004697,0.00026200,0.00012341,0.000036
 06,0.00005503,-0.00000946,0.00000948,0.00001361,-0.00000146,0.00000286
 ,0.00003809,-0.00001799,0.00001291,-0.00008043,-0.00005563,-0.00485210
 ,-0.00116176,-0.00480376,0.00016809,-0.00013304,0.00013800,0.02678723,
 0.01077571,-0.01988496,-0.00142994,0.00019185,0.00125812,-0.00004622,0
 .00000412,0.00002404,-0.00001988,-0.00000432,-0.00001211,0.12351191,0.
 03278357,-0.14021682,-0.00242608,0.00021232,0.00089643,-0.13327622,-0.
 03731231,0.15402920,-0.00069362,0.00049938,0.00026383,0.00027580,-0.00
 019225,-0.00022361,-0.00007192,-0.00023134,-0.00007961,-0.00017560,0.0
 0011967,-0.00002955,0.00016071,0.00011386,-0.00008359,0.00004430,-0.00
 003122,0.00031138,0.00001635,-0.00003393,-0.00001962,-0.00000450,0.000
 01763,0.00002606,0.00000629,0.00000573,-0.00003194,-0.00000732,-0.0000
 0090,0.00001762,-0.00034424,-0.00164146,0.00124167,-0.00034912,-0.0000
 1350,0.00056656,-0.00335965,0.00196357,-0.00421009,0.00049779,-0.00057
 302,-0.00043386,-0.00013161,0.00006342,0.00006098,0.00005360,0.0000711
 5,-0.00000986,-0.21604812,0.10404860,-0.07500561,0.00612572,-0.0031870
 4,0.00327394,-0.02012841,0.01208176,-0.00903924,0.23415600,-0.00101425
 ,0.00001678,0.00000135,0.00069720,-0.00028452,-0.00004272,-0.00013555,
 -0.00005400,0.00012621,-0.00004989,0.00015339,-0.00001622,0.00008188,0
 .00008285,-0.00016462,0.00008645,0.00025485,0.00018602,-0.00000064,-0.
 00002133,0.00000917,0.00000001,0.00001794,-0.00000392,-0.00000235,0.00
 003424,-0.00002136,-0.00003169,-0.00000076,0.00001551,0.00203675,-0.00
 035496,-0.00081567,0.00007035,-0.00000040,-0.00073359,-0.01023467,0.00
 631572,-0.00114241,0.00117743,-0.00072911,0.00067381,-0.00033815,0.000
 27515,-0.00005215,0.00015657,0.00002688,-0.00004463,0.10076373,-0.1070
 1043,0.04146712,0.02641495,-0.01371186,0.01126445,-0.00672099,0.003412
 04,-0.00349262,-0.11303773,0.11165391,-0.00277227,-0.00083839,0.000161
 84,-0.00041688,0.00063419,-0.00028203,-0.00005132,-0.00019096,0.000044
 16,0.00011125,0.00020981,-0.00007039,0.00000177,-0.00017462,-0.0001461
 5,0.00018467,0.00059538,0.00014929,0.00002413,0.00002766,0.00003363,0.
 00001173,-0.00000294,0.00002405,0.00000892,0.00004933,-0.00001635,-0.0
 0000979,0.00000286,0.00005803,0.00533504,-0.00407003,-0.00259771,-0.00
 033824,-0.00049728,0.00055405,-0.02656707,0.01916345,-0.01441805,0.001
 60411,-0.00140979,0.00028185,0.00039709,-0.00028924,0.00006832,-0.0001
 7300,-0.00001524,0.00017776,-0.07889126,0.04479099,-0.07537983,0.00158
 436,-0.00038405,0.00010942,0.01653169,-0.01039381,0.00825067,0.0833955
 3,-0.04721479,0.08303753,0.00018989,0.00084595,-0.00009613,0.00374829,
 0.00252159,0.00523877,-0.00182527,0.00079613,-0.00068281,0.00045603,0.
 00036450,-0.00039525,-0.00012245,0.00022559,0.00001518,0.00007874,-0.0
 0021732,-0.00022717,0.00023787,0.00028341,0.00020467,-0.00008393,0.000
 19208,-0.00007957,-0.00002162,0.00004371,0.00001280,-0.00009600,0.0000
 4695,-0.00002392,-0.00042418,-0.00040183,0.00035669,-0.03816801,0.0291
 7341,-0.00893568,0.00014880,0.00020719,-0.00042916,-0.00004403,-0.0000
 6546,0.00004691,-0.11955806,0.05376056,-0.02562951,0.00979587,-0.00785
 715,0.00638898,0.00001268,-0.00003836,0.00007333,0.00001578,-0.0000166
 2,-0.00003742,-0.00002861,0.00000696,0.00004211,-0.00001104,0.00004531
 ,0.00000863,0.54671242,0.00165453,-0.00138001,0.00019365,0.00170846,0.
 01075507,0.00609080,-0.00139666,0.00018503,0.00001345,0.00038563,0.000
 11276,-0.00046725,-0.00016431,-0.00022569,0.00006462,0.00036932,0.0005
 6346,-0.00062573,0.00005725,0.00009229,0.00024241,-0.00004961,0.000064
 08,-0.00003805,-0.00001638,0.00000607,0.00005776,0.00002938,-0.0000786
 3,0.00007030,-0.00034795,-0.00023200,0.00033555,0.01501102,-0.00815726
 ,-0.00464350,0.00002856,0.00001361,-0.00020691,0.00001293,0.00000570,0
 .00000824,0.05714654,-0.16329318,0.05137338,0.01134797,-0.00687365,0.0
 0682177,-0.00001202,0.00005482,-0.00002014,-0.00001837,0.00002084,0.00
 000301,0.00003693,0.00000406,0.00001795,-0.00005391,-0.00006918,0.0000
 7143,0.02862819,0.52654101,0.00157268,-0.00243986,0.00105767,0.0064356
 2,0.00778209,0.00654757,-0.00114635,0.00079968,-0.00015554,0.00072396,
 -0.00012993,-0.00009959,-0.00042645,-0.00050974,0.00006802,0.00047451,
 0.00087229,-0.00062759,-0.00015482,-0.00005341,-0.00009475,-0.00003775
 ,0.00001042,0.00000506,-0.00001014,-0.00001753,0.00001806,0.00010576,-
 0.00014493,0.00009534,-0.00030918,0.00004412,0.00012179,0.00514762,-0.
 01638813,0.00815991,0.00006729,-0.00001294,0.00006765,0.00005398,0.000
 03617,-0.00001838,-0.02927449,0.05458912,-0.11110275,-0.01276915,0.017
 84580,-0.00331057,0.00000891,-0.00005282,0.00002461,-0.00002917,0.0000
 2913,0.00002075,-0.00001750,0.00002170,-0.00001551,-0.00000507,-0.0000
 3500,-0.00012698,-0.03733707,-0.00848590,0.56510200,-0.00009907,0.0007
 0745,-0.00026354,-0.00152792,-0.00127403,-0.00163158,0.00009434,-0.000
 16935,0.00010661,-0.00018038,0.00002028,0.00005273,0.00006794,0.000121
 71,-0.00003699,-0.00012300,-0.00016277,0.00013203,0.00002545,-0.000036
 50,-0.00001128,0.00000573,0.00001272,-0.00000579,-0.00000412,0.0000076
 0,-0.00000809,-0.00003649,0.00003781,-0.00001832,0.00003631,-0.0001855
 4,-0.00009768,-0.00015307,0.00389276,-0.00082422,0.00001125,0.00006682
 ,0.00004921,-0.00002666,-0.00002778,0.00001135,-0.00855453,0.01343912,
 0.01653443,0.00017420,-0.00070340,-0.00076961,-0.00000211,-0.00001880,
 0.00001440,0.00000986,-0.00001372,-0.00001414,-0.00001290,-0.00000377,
 0.00000072,0.00001252,0.00002767,0.00000017,-0.05670883,0.03931677,0.0
 4745710,0.06310958,0.00011378,-0.00071850,0.00038554,0.00103519,0.0015
 4507,0.00088675,0.00002047,0.00020517,-0.00009378,0.00020748,-0.000073
 16,0.00005126,-0.00009535,-0.00018832,0.00002731,0.00012727,0.00021107
 ,-0.00013886,-0.00003570,0.00003375,-0.00002408,0.00000138,-0.00004281
 ,0.00002059,0.00001346,-0.00001973,0.00000953,0.00005088,-0.00004670,0
 .00002414,0.00004746,0.00011979,-0.00000408,0.00036269,-0.00327687,0.0
 0073750,-0.00004813,-0.00007487,0.00009117,0.00001991,0.00003032,-0.00
 002050,0.00584482,-0.01331484,-0.01888106,-0.00014637,0.00086496,0.001
 29819,-0.00000351,0.00001750,-0.00002653,-0.00001263,0.00001256,0.0000
 1643,0.00001374,0.00000440,-0.00001218,-0.00001427,-0.00002891,-0.0000
 0099,0.03926624,-0.15690613,-0.12103720,-0.04614064,0.16746522,-0.0002
 2761,0.00025073,-0.00017236,-0.00052840,-0.00115041,-0.00026862,0.0000
 3891,-0.00001941,0.00000833,-0.00003263,0.00003222,-0.00001682,0.00003
 120,0.00004720,-0.00001012,-0.00009055,-0.00009025,0.00007214,0.000014
 82,0.00001880,0.00000404,-0.00000025,0.00000919,-0.00001036,-0.0000012
 9,0.00000514,-0.00000113,-0.00001949,0.00002486,-0.00001622,-0.0000027
 0,0.00007010,0.00004362,-0.00140777,0.00081734,-0.00030763,0.00000956,
 -0.00001292,-0.00009267,0.00000156,0.00000005,0.00001117,-0.00152569,0
 .00872212,0.01263170,0.00059372,-0.00098968,-0.00006560,-0.00000313,0.
 00001307,0.00001161,-0.00000372,0.00000333,-0.00000531,0.00000772,-0.0
 0000046,0.00000630,-0.00000521,-0.00001114,0.00000961,0.04586263,-0.11
 940763,-0.18799888,-0.04872300,0.13429533,0.20020430,0.00034135,0.0000
 3487,-0.00004145,0.00054555,0.00191750,0.00102916,-0.00068639,0.000107
 60,0.00006737,0.00007187,0.00012026,-0.00011476,-0.00000667,0.00002686
 ,-0.00000120,0.00003214,0.00003577,-0.00009633,0.00002421,0.00001579,0
 .00002835,-0.00002545,0.00005804,-0.00003694,-0.00001249,0.00001631,0.
 00001229,-0.00002179,0.00000360,-0.00000259,-0.00013665,-0.00011037,0.
 00010601,-0.00090824,0.00112784,-0.00310523,0.00005057,0.00005228,-0.0
 0012107,-0.00000013,-0.00000838,0.00001742,-0.01925015,-0.00663914,-0.
 00405448,0.00072294,0.00088817,0.00024842,0.00002220,-0.00002681,0.000
 04164,-0.00001026,0.00000855,-0.00001470,-0.00001559,0.00000807,0.0000
 0939,0.00000141,-0.00000423,-0.00002985,-0.23694310,-0.09120807,-0.075
 14406,0.00748309,0.00258897,0.00261505,0.25933338,-0.00036934,-0.00018
 603,0.00009254,-0.00060308,-0.00193111,-0.00166855,0.00062645,-0.00002
 669,-0.00002639,-0.00003320,-0.00006385,0.00016653,0.00003676,-0.00010
 565,-0.00000094,-0.00010753,-0.00001009,0.00010700,-0.00004606,-0.0000
 5470,-0.00003632,0.00001848,-0.00005471,0.00003179,0.00000771,-0.00001
 207,-0.00000558,0.00002374,-0.00000099,-0.00000351,0.00016337,0.000259
 38,-0.00010111,0.00191681,-0.00143183,0.00149422,-0.00004995,-0.000090
 90,0.00011639,0.00002449,0.00002925,-0.00001753,0.02409652,0.01256964,
 0.00789474,-0.00147104,0.00000659,-0.00075240,-0.00000004,0.00001910,-
 0.00003289,-0.00000376,0.00000541,0.00001573,0.00000273,-0.00000096,-0
 .00001245,0.00000092,-0.00001804,-0.00002193,-0.08860440,-0.08643638,-
 0.03006816,-0.01920492,-0.00873032,-0.00707916,0.09534737,0.09258255,0
 .00016896,0.00027101,-0.00011951,0.00013454,0.00015078,0.00057095,-0.0
 0026830,-0.00001434,0.00008702,-0.00006143,-0.00001856,-0.00010320,-0.
 00002435,0.00012086,-0.00002150,0.00005678,-0.00000833,-0.00000866,0.0
 0000600,0.00000821,0.00003701,-0.00000303,0.00003391,-0.00001511,-0.00
 001026,0.00001307,0.00000211,-0.00002290,0.00000611,-0.00000398,-0.000
 11563,-0.00018102,0.00004310,-0.00009992,0.00039142,-0.00052266,0.0000
 4133,0.00007744,-0.00009151,-0.00001920,-0.00002403,0.00000974,-0.0083
 4457,-0.00628597,-0.00324756,0.00073987,0.00045356,0.00033067,0.000005
 12,-0.00001516,0.00002156,0.00001373,-0.00001000,-0.00000854,-0.000005
 59,-0.00000359,0.00001107,0.00000451,0.00003007,0.00002326,-0.07580946
 ,-0.03070848,-0.07662771,-0.02132442,-0.00966608,-0.00869421,0.0835727
 1,0.03651173,0.07761036,0.00016715,-0.00009611,0.00008065,-0.00036628,
 0.00013672,-0.00009527,-0.00005450,0.00011904,0.00012052,0.00007817,-0
 .00010900,0.00006170,-0.00010183,-0.00008435,0.00000812,-0.00001991,0.
 00014309,-0.00003175,-0.00005082,-0.00003652,-0.00006280,0.00000639,-0
 .00001528,0.00000004,0.00000071,-0.00000911,-0.00001036,0.00000893,-0.
 00000258,0.00000297,-0.00000888,-0.00000113,-0.00001915,0.00167438,-0.
 00147673,-0.00019533,-0.00003106,-0.00000876,0.00000579,-0.00000389,-0
 .00000292,-0.00000363,0.01080557,0.01096962,-0.01760577,-0.00194228,0.
 00312957,-0.00071898,-0.00004474,0.00000637,-0.00000566,0.00001366,-0.
 00000542,0.00001222,0.00001604,-0.00000276,-0.00000364,-0.00002533,0.0
 0001184,0.00005056,-0.10736123,-0.06246622,0.09461379,-0.00360117,-0.0
 0321714,0.00339625,-0.01061179,-0.01177203,0.02136550,0.11145272,-0.00
 013815,0.00001471,0.00001855,0.00022678,0.00005600,-0.00043752,-0.0000
 4932,0.00006835,-0.00012805,0.00003922,0.00006699,0.00003376,0.0000191
 0,0.00000504,-0.00000762,0.00000732,-0.00003847,0.00002508,0.00003982,
 0.00005919,0.00004236,-0.00000766,0.00000577,0.00000781,0.00000734,-0.
 00000102,0.00000194,0.00000057,0.00000255,0.00000522,0.00005518,0.0000
 0669,-0.00007211,-0.00200836,0.00216204,-0.00199426,0.00000911,0.00002
 916,0.00010392,-0.00000614,-0.00000402,-0.00001435,-0.01349476,-0.0137
 0855,0.02043979,0.00375342,-0.00188485,0.00193223,0.00001881,-0.000032
 66,-0.00001171,0.00001069,-0.00001130,0.00000508,-0.00002062,0.0000019
 3,-0.00000762,0.00002489,0.00003977,-0.00004104,-0.05920665,-0.1147667
 0,0.09734501,0.01029049,0.01291136,-0.01554843,-0.00436086,-0.00631759
 ,0.00886738,0.06478979,0.12133563,0.00007631,0.00017881,-0.00007228,-0
 .00027865,-0.00041819,0.00017612,0.00011906,-0.00006604,0.00013731,-0.
 00004286,-0.00008179,-0.00000624,-0.00001516,0.00002222,-0.00000360,-0
 .00002326,-0.00001515,-0.00000369,-0.00003893,-0.00004622,-0.00004574,
 0.00000615,-0.00000131,0.00000425,-0.00000640,0.00000092,-0.00000475,-
 0.00001038,0.00000858,-0.00000228,-0.00004376,-0.00011326,0.00000181,0
 .00059831,-0.00220277,0.00105712,0.00000042,0.00007019,-0.00002522,-0.
 00002642,-0.00002874,0.00000194,0.00598001,0.00634577,-0.01060349,-0.0
 0115355,0.00221797,0.00082727,-0.00002276,0.00000347,-0.00000146,0.000
 01182,-0.00001631,-0.00000515,0.00000386,-0.00000696,0.00000605,0.0000
 1476,0.00001712,0.00005402,0.09143245,0.09923926,-0.20111017,0.0093699
 2,0.01206157,-0.01534288,-0.00498517,-0.00660376,0.01071728,-0.1009657
 7,-0.11056540,0.21424378\\0.00001693,-0.00001948,0.00000059,-0.0000245
 3,0.00000352,0.00000125,-0.00000866,0.00001909,-0.00000149,0.00000248,
 -0.00000804,0.00000724,-0.00000378,0.00000204,-0.00000129,0.00000322,0
 .00000316,-0.00000431,0.00000071,-0.00000324,0.00000279,-0.00000109,0.
 00000501,0.00000108,-0.00000374,-0.00000248,0.00000026,-0.00000180,-0.
 00000384,-0.00000214,-0.00000862,0.00001792,-0.00000568,0.00001809,0.0
 0000963,-0.00000830,-0.00000585,-0.00002555,0.00000801,0.00000476,-0.0
 0000273,-0.00000325,-0.00000254,0.00000393,-0.00000206,-0.00000395,-0.
 00000056,0.00000567,-0.00000302,0.00000308,-0.00000310,0.00000029,-0.0
 0000478,-0.00000049,0.00000265,-0.00000602,-0.00000731,0.00000175,-0.0
 0000091,0.00000096,0.00001203,-0.00000214,0.00000818,0.00000252,0.0000
 0639,0.00000123,-0.00000363,0.00000043,0.00000302,0.00000577,0.0000055
 7,-0.00000086\\\@
 The archive entry for this job was punched.


 ONE OF THE BENEFITS OF A COLLEGE EDUCATION
 IS TO SHOW THE BOY ITS LITTLE AVAIL 
                                    EMERSON IN 'CULTURE'
 Job cpu time:       0 days  0 hours 39 minutes 37.4 seconds.
 Elapsed time:       0 days  0 hours  4 minutes 57.7 seconds.
 File lengths (MBytes):  RWF=    187 Int=      0 D2E=      0 Chk=     11 Scr=      1
 Normal termination of Gaussian 16 at Wed Sep 29 02:26:51 2021.
