 Entering Gaussian System, Link 0=/home/rong/g16/g16
 Input=/home/rong/g16/102121/benzNCH2PhCH2CH3.gjf
 Output=/home/rong/g16/102121/benzNCH2PhCH2CH3.log
 Initial command:
 /home/rong/g16/l1.exe "/tmp/Gau-74131.inp" -scrdir="/tmp/"
 Default is to use a total of   8 processors:
                                8 via shared-memory
                                1 via Linda
 Entering Link 1 = /home/rong/g16/l1.exe PID=     74133.
  
 Copyright (c) 1988-2019, Gaussian, Inc.  All Rights Reserved.
  
 This is part of the Gaussian(R) 16 program.  It is based on
 the Gaussian(R) 09 system (copyright 2009, Gaussian, Inc.),
 the Gaussian(R) 03 system (copyright 2003, Gaussian, Inc.),
 the Gaussian(R) 98 system (copyright 1998, Gaussian, Inc.),
 the Gaussian(R) 94 system (copyright 1995, Gaussian, Inc.),
 the Gaussian 92(TM) system (copyright 1992, Gaussian, Inc.),
 the Gaussian 90(TM) system (copyright 1990, Gaussian, Inc.),
 the Gaussian 88(TM) system (copyright 1988, Gaussian, Inc.),
 the Gaussian 86(TM) system (copyright 1986, Carnegie Mellon
 University), and the Gaussian 82(TM) system (copyright 1983,
 Carnegie Mellon University). Gaussian is a federally registered
 trademark of Gaussian, Inc.
  
 This software contains proprietary and confidential information,
 including trade secrets, belonging to Gaussian, Inc.
  
 This software is provided under written license and may be
 used, copied, transmitted, or stored only in accord with that
 written license.
  
 The following legend is applicable only to US Government
 contracts under FAR:
  
                    RESTRICTED RIGHTS LEGEND
  
 Use, reproduction and disclosure by the US Government is
 subject to restrictions as set forth in subparagraphs (a)
 and (c) of the Commercial Computer Software - Restricted
 Rights clause in FAR 52.227-19.
  
 Gaussian, Inc.
 340 Quinnipiac St., Bldg. 40, Wallingford CT 06492
  
  
 ---------------------------------------------------------------
 Warning -- This program may not be used in any manner that
 competes with the business of Gaussian, Inc. or will provide
 assistance to any competitor of Gaussian, Inc.  The licensee
 of this program is prohibited from giving any competitor of
 Gaussian, Inc. access to this program.  By using this program,
 the user acknowledges that Gaussian, Inc. is engaged in the
 business of creating and licensing software in the field of
 computational chemistry and represents and warrants to the
 licensee that it is not a competitor of Gaussian, Inc. and that
 it will not use this program in any manner prohibited above.
 ---------------------------------------------------------------
  

 Cite this work as:
 Gaussian 16, Revision C.01,
 M. J. Frisch, G. W. Trucks, H. B. Schlegel, G. E. Scuseria, 
 M. A. Robb, J. R. Cheeseman, G. Scalmani, V. Barone, 
 G. A. Petersson, H. Nakatsuji, X. Li, M. Caricato, A. V. Marenich, 
 J. Bloino, B. G. Janesko, R. Gomperts, B. Mennucci, H. P. Hratchian, 
 J. V. Ortiz, A. F. Izmaylov, J. L. Sonnenberg, D. Williams-Young, 
 F. Ding, F. Lipparini, F. Egidi, J. Goings, B. Peng, A. Petrone, 
 T. Henderson, D. Ranasinghe, V. G. Zakrzewski, J. Gao, N. Rega, 
 G. Zheng, W. Liang, M. Hada, M. Ehara, K. Toyota, R. Fukuda, 
 J. Hasegawa, M. Ishida, T. Nakajima, Y. Honda, O. Kitao, H. Nakai, 
 T. Vreven, K. Throssell, J. A. Montgomery, Jr., J. E. Peralta, 
 F. Ogliaro, M. J. Bearpark, J. J. Heyd, E. N. Brothers, K. N. Kudin, 
 V. N. Staroverov, T. A. Keith, R. Kobayashi, J. Normand, 
 K. Raghavachari, A. P. Rendell, J. C. Burant, S. S. Iyengar, 
 J. Tomasi, M. Cossi, J. M. Millam, M. Klene, C. Adamo, R. Cammi, 
 J. W. Ochterski, R. L. Martin, K. Morokuma, O. Farkas, 
 J. B. Foresman, and D. J. Fox, Gaussian, Inc., Wallingford CT, 2019.
 
 ******************************************
 Gaussian 16:  ES64L-G16RevC.01  3-Jul-2019
                23-Oct-2021 
 ******************************************
 %mem=15GB
 %chk=benzNCH2PhCH2CH3.chk
 %nprocshared=8
 Will use up to    8 processors via shared memory.
 ----------------------------------------------------
 # opt freq b3lyp/6-31g(d) scrf=(smd,solvent=toluene)
 ----------------------------------------------------
 1/18=20,19=15,26=3,38=1/1,3;
 2/9=110,12=2,17=6,18=5,40=1/2;
 3/5=1,6=6,7=1,11=2,25=1,30=1,70=32201,71=1,72=13,74=-5/1,2,3;
 4//1;
 5/5=2,38=5,53=13/2;
 6/7=2,8=2,9=2,10=2,28=1/1;
 7//1,2,3,16;
 1/18=20,19=15,26=3/3(2);
 2/9=110/2;
 99//99;
 2/9=110/2;
 3/5=1,6=6,7=1,11=2,25=1,30=1,70=32205,71=1,72=13,74=-5/1,2,3;
 4/5=5,16=3,69=1/1;
 5/5=2,38=5,53=13/2;
 7//1,2,3,16;
 1/18=20,19=15,26=3/3(-5);
 2/9=110/2;
 6/7=2,8=2,9=2,10=2,19=2,28=1/1;
 99/9=1/99;
 ----------------
 BenzNCH2PhCH2CH3
 ----------------
 Symbolic Z-matrix:
 Charge =  0 Multiplicity = 1
 C                    -0.32353   0.39706   0. 
 C                     1.07163   0.39706   0. 
 C                     1.76917   1.60481   0. 
 C                     1.07151   2.81332  -0.0012 
 C                    -0.32331   2.81324  -0.00168 
 C                    -1.02091   1.60503  -0.00068 
 H                     2.86885   1.60489   0.00063 
 H                     1.62171   3.76546  -0.00126 
 H                    -0.87343   3.76552  -0.00263 
 H                    -2.12052   1.60522  -0.00086 
 N                    -1.05847  -0.87603   0.0006 
 N                     1.8062   -0.87624   0.00176 
 C                     2.65137  -0.9527    1.20207 
 H                     2.92188  -1.97192   1.38348 
 H                     2.11115  -0.57187   2.04351 
 C                    -1.90397  -0.95316   1.20063 
 H                    -2.81768  -0.42385   1.02778 
 H                    -2.12119  -1.97795   1.41864 
 C                     2.65123  -0.9561   -1.19843 
 H                     3.48667  -0.29625  -1.09097 
 H                     2.07955  -0.67087  -2.05676 
 C                    -1.9032   -0.95473  -1.19987 
 H                    -2.76153  -0.32844  -1.07369 
 H                    -1.34439  -0.62669  -2.05134 
 C                     3.15688  -2.39995  -1.37508 
 H                     3.3012   -2.6025   -2.41578 
 H                     4.08527  -2.51868  -0.85652 
 H                     2.43551  -3.08186  -0.97569 
 C                    -2.35709  -2.41072  -1.41362 
 H                    -3.34647  -2.53644  -1.02603 
 H                    -2.35254  -2.63582  -2.45966 
 H                    -1.68763  -3.07153  -0.90367 
 C                    -1.16206  -0.32082   2.39282 
 C                    -1.45296   0.98728   2.78105 
 C                    -0.19935  -1.05583   3.08456 
 C                    -0.78078   1.56039   3.86038 
 H                    -2.21144   1.56675   2.23501 
 C                     0.47242  -0.48303   4.16486 
 H                     0.02992  -2.08689   2.77882 
 C                     0.18198   0.82491   4.55276 
 H                    -1.00957   2.59166   4.16605 
 H                     1.23112  -1.06294   4.71034 
 H                     0.7118    1.27698   5.40377 
 C                     3.92498  -0.11398   0.98738 
 C                     4.85691  -0.49555   0.02178 
 C                     4.14681   1.02717   1.75816 
 C                     6.01071   0.26355  -0.17246 
 H                     4.68209  -1.3957   -0.5852 
 C                     5.30044   1.78716   1.56331 
 H                     3.41233   1.32815   2.51913 
 C                     6.23242   1.40548   0.59828 
 H                     6.74562  -0.0375   -0.93311 
 H                     5.47489   2.68709   2.1709 
 H                     7.1422    2.00387   0.44491 
 

 GradGradGradGradGradGradGradGradGradGradGradGradGradGradGradGradGradGrad
 Berny optimization.
 Initialization pass.
                           ----------------------------
                           !    Initial Parameters    !
                           ! (Angstroms and Degrees)  !
 --------------------------                            --------------------------
 ! Name  Definition              Value          Derivative Info.                !
 --------------------------------------------------------------------------------
 ! R1    R(1,2)                  1.3952         estimate D2E/DX2                !
 ! R2    R(1,6)                  1.3948         estimate D2E/DX2                !
 ! R3    R(1,11)                 1.47           estimate D2E/DX2                !
 ! R4    R(2,3)                  1.3947         estimate D2E/DX2                !
 ! R5    R(2,12)                 1.47           estimate D2E/DX2                !
 ! R6    R(3,4)                  1.3954         estimate D2E/DX2                !
 ! R7    R(3,7)                  1.0997         estimate D2E/DX2                !
 ! R8    R(4,5)                  1.3948         estimate D2E/DX2                !
 ! R9    R(4,8)                  1.0997         estimate D2E/DX2                !
 ! R10   R(5,6)                  1.3951         estimate D2E/DX2                !
 ! R11   R(5,9)                  1.0998         estimate D2E/DX2                !
 ! R12   R(6,10)                 1.0996         estimate D2E/DX2                !
 ! R13   R(11,16)                1.47           estimate D2E/DX2                !
 ! R14   R(11,22)                1.47           estimate D2E/DX2                !
 ! R15   R(12,13)                1.47           estimate D2E/DX2                !
 ! R16   R(12,19)                1.47           estimate D2E/DX2                !
 ! R17   R(13,14)                1.07           estimate D2E/DX2                !
 ! R18   R(13,15)                1.07           estimate D2E/DX2                !
 ! R19   R(13,44)                1.54           estimate D2E/DX2                !
 ! R20   R(16,17)                1.07           estimate D2E/DX2                !
 ! R21   R(16,18)                1.07           estimate D2E/DX2                !
 ! R22   R(16,33)                1.54           estimate D2E/DX2                !
 ! R23   R(19,20)                1.07           estimate D2E/DX2                !
 ! R24   R(19,21)                1.07           estimate D2E/DX2                !
 ! R25   R(19,25)                1.54           estimate D2E/DX2                !
 ! R26   R(22,23)                1.07           estimate D2E/DX2                !
 ! R27   R(22,24)                1.07           estimate D2E/DX2                !
 ! R28   R(22,29)                1.54           estimate D2E/DX2                !
 ! R29   R(25,26)                1.07           estimate D2E/DX2                !
 ! R30   R(25,27)                1.07           estimate D2E/DX2                !
 ! R31   R(25,28)                1.07           estimate D2E/DX2                !
 ! R32   R(29,30)                1.07           estimate D2E/DX2                !
 ! R33   R(29,31)                1.07           estimate D2E/DX2                !
 ! R34   R(29,32)                1.07           estimate D2E/DX2                !
 ! R35   R(33,34)                1.3952         estimate D2E/DX2                !
 ! R36   R(33,35)                1.3948         estimate D2E/DX2                !
 ! R37   R(34,36)                1.3947         estimate D2E/DX2                !
 ! R38   R(34,37)                1.0997         estimate D2E/DX2                !
 ! R39   R(35,38)                1.3951         estimate D2E/DX2                !
 ! R40   R(35,39)                1.0996         estimate D2E/DX2                !
 ! R41   R(36,40)                1.3954         estimate D2E/DX2                !
 ! R42   R(36,41)                1.0997         estimate D2E/DX2                !
 ! R43   R(38,40)                1.3948         estimate D2E/DX2                !
 ! R44   R(38,42)                1.0998         estimate D2E/DX2                !
 ! R45   R(40,43)                1.0997         estimate D2E/DX2                !
 ! R46   R(44,45)                1.3952         estimate D2E/DX2                !
 ! R47   R(44,46)                1.3948         estimate D2E/DX2                !
 ! R48   R(45,47)                1.3947         estimate D2E/DX2                !
 ! R49   R(45,48)                1.0997         estimate D2E/DX2                !
 ! R50   R(46,49)                1.3951         estimate D2E/DX2                !
 ! R51   R(46,50)                1.0996         estimate D2E/DX2                !
 ! R52   R(47,51)                1.3954         estimate D2E/DX2                !
 ! R53   R(47,52)                1.0997         estimate D2E/DX2                !
 ! R54   R(49,51)                1.3948         estimate D2E/DX2                !
 ! R55   R(49,53)                1.0998         estimate D2E/DX2                !
 ! R56   R(51,54)                1.0997         estimate D2E/DX2                !
 ! A1    A(2,1,6)              119.9985         estimate D2E/DX2                !
 ! A2    A(2,1,11)             119.9972         estimate D2E/DX2                !
 ! A3    A(6,1,11)             120.0043         estimate D2E/DX2                !
 ! A4    A(1,2,3)              120.0086         estimate D2E/DX2                !
 ! A5    A(1,2,12)             119.9808         estimate D2E/DX2                !
 ! A6    A(3,2,12)             120.0105         estimate D2E/DX2                !
 ! A7    A(2,3,4)              119.9942         estimate D2E/DX2                !
 ! A8    A(2,3,7)              120.0128         estimate D2E/DX2                !
 ! A9    A(4,3,7)              119.993          estimate D2E/DX2                !
 ! A10   A(3,4,5)              119.994          estimate D2E/DX2                !
 ! A11   A(3,4,8)              119.9811         estimate D2E/DX2                !
 ! A12   A(5,4,8)              120.0249         estimate D2E/DX2                !
 ! A13   A(4,5,6)              120.0047         estimate D2E/DX2                !
 ! A14   A(4,5,9)              120.0113         estimate D2E/DX2                !
 ! A15   A(6,5,9)              119.984          estimate D2E/DX2                !
 ! A16   A(1,6,5)              120.0            estimate D2E/DX2                !
 ! A17   A(1,6,10)             120.008          estimate D2E/DX2                !
 ! A18   A(5,6,10)             119.992          estimate D2E/DX2                !
 ! A19   A(1,11,16)            109.4712         estimate D2E/DX2                !
 ! A20   A(1,11,22)            109.4712         estimate D2E/DX2                !
 ! A21   A(16,11,22)           109.4713         estimate D2E/DX2                !
 ! A22   A(2,12,13)            109.4712         estimate D2E/DX2                !
 ! A23   A(2,12,19)            109.4712         estimate D2E/DX2                !
 ! A24   A(13,12,19)           109.4713         estimate D2E/DX2                !
 ! A25   A(12,13,14)           109.4712         estimate D2E/DX2                !
 ! A26   A(12,13,15)           109.4712         estimate D2E/DX2                !
 ! A27   A(12,13,44)           109.4712         estimate D2E/DX2                !
 ! A28   A(14,13,15)           109.4712         estimate D2E/DX2                !
 ! A29   A(14,13,44)           109.4713         estimate D2E/DX2                !
 ! A30   A(15,13,44)           109.4712         estimate D2E/DX2                !
 ! A31   A(11,16,17)           109.4712         estimate D2E/DX2                !
 ! A32   A(11,16,18)           109.4712         estimate D2E/DX2                !
 ! A33   A(11,16,33)           109.4712         estimate D2E/DX2                !
 ! A34   A(17,16,18)           109.4713         estimate D2E/DX2                !
 ! A35   A(17,16,33)           109.4712         estimate D2E/DX2                !
 ! A36   A(18,16,33)           109.4712         estimate D2E/DX2                !
 ! A37   A(12,19,20)           109.4712         estimate D2E/DX2                !
 ! A38   A(12,19,21)           109.4712         estimate D2E/DX2                !
 ! A39   A(12,19,25)           109.4712         estimate D2E/DX2                !
 ! A40   A(20,19,21)           109.4712         estimate D2E/DX2                !
 ! A41   A(20,19,25)           109.4713         estimate D2E/DX2                !
 ! A42   A(21,19,25)           109.4712         estimate D2E/DX2                !
 ! A43   A(11,22,23)           109.4712         estimate D2E/DX2                !
 ! A44   A(11,22,24)           109.4712         estimate D2E/DX2                !
 ! A45   A(11,22,29)           109.4712         estimate D2E/DX2                !
 ! A46   A(23,22,24)           109.4712         estimate D2E/DX2                !
 ! A47   A(23,22,29)           109.4713         estimate D2E/DX2                !
 ! A48   A(24,22,29)           109.4712         estimate D2E/DX2                !
 ! A49   A(19,25,26)           109.4712         estimate D2E/DX2                !
 ! A50   A(19,25,27)           109.4712         estimate D2E/DX2                !
 ! A51   A(19,25,28)           109.4712         estimate D2E/DX2                !
 ! A52   A(26,25,27)           109.4713         estimate D2E/DX2                !
 ! A53   A(26,25,28)           109.4712         estimate D2E/DX2                !
 ! A54   A(27,25,28)           109.4712         estimate D2E/DX2                !
 ! A55   A(22,29,30)           109.4712         estimate D2E/DX2                !
 ! A56   A(22,29,31)           109.4712         estimate D2E/DX2                !
 ! A57   A(22,29,32)           109.4712         estimate D2E/DX2                !
 ! A58   A(30,29,31)           109.4713         estimate D2E/DX2                !
 ! A59   A(30,29,32)           109.4712         estimate D2E/DX2                !
 ! A60   A(31,29,32)           109.4712         estimate D2E/DX2                !
 ! A61   A(16,33,34)           119.9972         estimate D2E/DX2                !
 ! A62   A(16,33,35)           120.0043         estimate D2E/DX2                !
 ! A63   A(34,33,35)           119.9985         estimate D2E/DX2                !
 ! A64   A(33,34,36)           120.0086         estimate D2E/DX2                !
 ! A65   A(33,34,37)           119.9808         estimate D2E/DX2                !
 ! A66   A(36,34,37)           120.0105         estimate D2E/DX2                !
 ! A67   A(33,35,38)           120.0            estimate D2E/DX2                !
 ! A68   A(33,35,39)           120.008          estimate D2E/DX2                !
 ! A69   A(38,35,39)           119.992          estimate D2E/DX2                !
 ! A70   A(34,36,40)           119.9942         estimate D2E/DX2                !
 ! A71   A(34,36,41)           120.0128         estimate D2E/DX2                !
 ! A72   A(40,36,41)           119.993          estimate D2E/DX2                !
 ! A73   A(35,38,40)           120.0047         estimate D2E/DX2                !
 ! A74   A(35,38,42)           119.984          estimate D2E/DX2                !
 ! A75   A(40,38,42)           120.0113         estimate D2E/DX2                !
 ! A76   A(36,40,38)           119.994          estimate D2E/DX2                !
 ! A77   A(36,40,43)           119.9811         estimate D2E/DX2                !
 ! A78   A(38,40,43)           120.0249         estimate D2E/DX2                !
 ! A79   A(13,44,45)           119.9972         estimate D2E/DX2                !
 ! A80   A(13,44,46)           120.0043         estimate D2E/DX2                !
 ! A81   A(45,44,46)           119.9985         estimate D2E/DX2                !
 ! A82   A(44,45,47)           120.0086         estimate D2E/DX2                !
 ! A83   A(44,45,48)           119.9808         estimate D2E/DX2                !
 ! A84   A(47,45,48)           120.0105         estimate D2E/DX2                !
 ! A85   A(44,46,49)           120.0            estimate D2E/DX2                !
 ! A86   A(44,46,50)           120.008          estimate D2E/DX2                !
 ! A87   A(49,46,50)           119.992          estimate D2E/DX2                !
 ! A88   A(45,47,51)           119.9942         estimate D2E/DX2                !
 ! A89   A(45,47,52)           120.0128         estimate D2E/DX2                !
 ! A90   A(51,47,52)           119.993          estimate D2E/DX2                !
 ! A91   A(46,49,51)           120.0047         estimate D2E/DX2                !
 ! A92   A(46,49,53)           119.984          estimate D2E/DX2                !
 ! A93   A(51,49,53)           120.0113         estimate D2E/DX2                !
 ! A94   A(47,51,49)           119.994          estimate D2E/DX2                !
 ! A95   A(47,51,54)           119.9811         estimate D2E/DX2                !
 ! A96   A(49,51,54)           120.0249         estimate D2E/DX2                !
 ! D1    D(6,1,2,3)              0.0323         estimate D2E/DX2                !
 ! D2    D(6,1,2,12)           179.9532         estimate D2E/DX2                !
 ! D3    D(11,1,2,3)          -179.9729         estimate D2E/DX2                !
 ! D4    D(11,1,2,12)           -0.052          estimate D2E/DX2                !
 ! D5    D(2,1,6,5)              0.0149         estimate D2E/DX2                !
 ! D6    D(2,1,6,10)           179.9892         estimate D2E/DX2                !
 ! D7    D(11,1,6,5)          -179.9798         estimate D2E/DX2                !
 ! D8    D(11,1,6,10)           -0.0056         estimate D2E/DX2                !
 ! D9    D(2,1,11,16)          120.0212         estimate D2E/DX2                !
 ! D10   D(2,1,11,22)         -119.9788         estimate D2E/DX2                !
 ! D11   D(6,1,11,16)          -59.9841         estimate D2E/DX2                !
 ! D12   D(6,1,11,22)           60.0159         estimate D2E/DX2                !
 ! D13   D(1,2,3,4)             -0.0568         estimate D2E/DX2                !
 ! D14   D(1,2,3,7)            179.9619         estimate D2E/DX2                !
 ! D15   D(12,2,3,4)          -179.9777         estimate D2E/DX2                !
 ! D16   D(12,2,3,7)             0.041          estimate D2E/DX2                !
 ! D17   D(1,2,12,13)         -120.004          estimate D2E/DX2                !
 ! D18   D(1,2,12,19)          119.996          estimate D2E/DX2                !
 ! D19   D(3,2,12,13)           59.9169         estimate D2E/DX2                !
 ! D20   D(3,2,12,19)          -60.0831         estimate D2E/DX2                !
 ! D21   D(2,3,4,5)              0.0341         estimate D2E/DX2                !
 ! D22   D(2,3,4,8)           -179.9964         estimate D2E/DX2                !
 ! D23   D(7,3,4,5)           -179.9846         estimate D2E/DX2                !
 ! D24   D(7,3,4,8)             -0.0151         estimate D2E/DX2                !
 ! D25   D(3,4,5,6)              0.0131         estimate D2E/DX2                !
 ! D26   D(3,4,5,9)           -179.9995         estimate D2E/DX2                !
 ! D27   D(8,4,5,6)           -179.9563         estimate D2E/DX2                !
 ! D28   D(8,4,5,9)              0.0311         estimate D2E/DX2                !
 ! D29   D(4,5,6,1)             -0.0376         estimate D2E/DX2                !
 ! D30   D(4,5,6,10)           179.9881         estimate D2E/DX2                !
 ! D31   D(9,5,6,1)            179.975          estimate D2E/DX2                !
 ! D32   D(9,5,6,10)             0.0007         estimate D2E/DX2                !
 ! D33   D(1,11,16,17)          82.7187         estimate D2E/DX2                !
 ! D34   D(1,11,16,18)        -157.2813         estimate D2E/DX2                !
 ! D35   D(1,11,16,33)         -37.2813         estimate D2E/DX2                !
 ! D36   D(22,11,16,17)        -37.2813         estimate D2E/DX2                !
 ! D37   D(22,11,16,18)         82.7187         estimate D2E/DX2                !
 ! D38   D(22,11,16,33)       -157.2813         estimate D2E/DX2                !
 ! D39   D(1,11,22,23)         -75.8746         estimate D2E/DX2                !
 ! D40   D(1,11,22,24)          44.1254         estimate D2E/DX2                !
 ! D41   D(1,11,22,29)         164.1254         estimate D2E/DX2                !
 ! D42   D(16,11,22,23)         44.1254         estimate D2E/DX2                !
 ! D43   D(16,11,22,24)        164.1254         estimate D2E/DX2                !
 ! D44   D(16,11,22,29)        -75.8746         estimate D2E/DX2                !
 ! D45   D(2,12,13,14)         161.0097         estimate D2E/DX2                !
 ! D46   D(2,12,13,15)          41.0097         estimate D2E/DX2                !
 ! D47   D(2,12,13,44)         -78.9903         estimate D2E/DX2                !
 ! D48   D(19,12,13,14)        -78.9903         estimate D2E/DX2                !
 ! D49   D(19,12,13,15)        161.0097         estimate D2E/DX2                !
 ! D50   D(19,12,13,44)         41.0097         estimate D2E/DX2                !
 ! D51   D(2,12,19,20)          73.3296         estimate D2E/DX2                !
 ! D52   D(2,12,19,21)         -46.6704         estimate D2E/DX2                !
 ! D53   D(2,12,19,25)        -166.6704         estimate D2E/DX2                !
 ! D54   D(13,12,19,20)        -46.6704         estimate D2E/DX2                !
 ! D55   D(13,12,19,21)       -166.6704         estimate D2E/DX2                !
 ! D56   D(13,12,19,25)         73.3296         estimate D2E/DX2                !
 ! D57   D(12,13,44,45)        -65.8922         estimate D2E/DX2                !
 ! D58   D(12,13,44,46)        114.1026         estimate D2E/DX2                !
 ! D59   D(14,13,44,45)         54.1078         estimate D2E/DX2                !
 ! D60   D(14,13,44,46)       -125.8975         estimate D2E/DX2                !
 ! D61   D(15,13,44,45)        174.1078         estimate D2E/DX2                !
 ! D62   D(15,13,44,46)         -5.8974         estimate D2E/DX2                !
 ! D63   D(11,16,33,34)         99.2502         estimate D2E/DX2                !
 ! D64   D(11,16,33,35)        -80.7551         estimate D2E/DX2                !
 ! D65   D(17,16,33,34)        -20.7498         estimate D2E/DX2                !
 ! D66   D(17,16,33,35)        159.2449         estimate D2E/DX2                !
 ! D67   D(18,16,33,34)       -140.7498         estimate D2E/DX2                !
 ! D68   D(18,16,33,35)         39.2449         estimate D2E/DX2                !
 ! D69   D(12,19,25,26)        150.1291         estimate D2E/DX2                !
 ! D70   D(12,19,25,27)        -89.8709         estimate D2E/DX2                !
 ! D71   D(12,19,25,28)         30.1291         estimate D2E/DX2                !
 ! D72   D(20,19,25,26)        -89.871          estimate D2E/DX2                !
 ! D73   D(20,19,25,27)         30.1291         estimate D2E/DX2                !
 ! D74   D(20,19,25,28)        150.129          estimate D2E/DX2                !
 ! D75   D(21,19,25,26)         30.1291         estimate D2E/DX2                !
 ! D76   D(21,19,25,27)        150.1291         estimate D2E/DX2                !
 ! D77   D(21,19,25,28)        -89.8709         estimate D2E/DX2                !
 ! D78   D(11,22,29,30)         98.4567         estimate D2E/DX2                !
 ! D79   D(11,22,29,31)       -141.5433         estimate D2E/DX2                !
 ! D80   D(11,22,29,32)        -21.5433         estimate D2E/DX2                !
 ! D81   D(23,22,29,30)        -21.5433         estimate D2E/DX2                !
 ! D82   D(23,22,29,31)         98.4567         estimate D2E/DX2                !
 ! D83   D(23,22,29,32)       -141.5433         estimate D2E/DX2                !
 ! D84   D(24,22,29,30)       -141.5433         estimate D2E/DX2                !
 ! D85   D(24,22,29,31)        -21.5433         estimate D2E/DX2                !
 ! D86   D(24,22,29,32)         98.4567         estimate D2E/DX2                !
 ! D87   D(16,33,34,36)       -179.9729         estimate D2E/DX2                !
 ! D88   D(16,33,34,37)         -0.052          estimate D2E/DX2                !
 ! D89   D(35,33,34,36)          0.0323         estimate D2E/DX2                !
 ! D90   D(35,33,34,37)        179.9532         estimate D2E/DX2                !
 ! D91   D(16,33,35,38)       -179.9798         estimate D2E/DX2                !
 ! D92   D(16,33,35,39)         -0.0055         estimate D2E/DX2                !
 ! D93   D(34,33,35,38)          0.0149         estimate D2E/DX2                !
 ! D94   D(34,33,35,39)        179.9892         estimate D2E/DX2                !
 ! D95   D(33,34,36,40)         -0.0568         estimate D2E/DX2                !
 ! D96   D(33,34,36,41)        179.9619         estimate D2E/DX2                !
 ! D97   D(37,34,36,40)       -179.9777         estimate D2E/DX2                !
 ! D98   D(37,34,36,41)          0.041          estimate D2E/DX2                !
 ! D99   D(33,35,38,40)         -0.0376         estimate D2E/DX2                !
 ! D100  D(33,35,38,42)        179.975          estimate D2E/DX2                !
 ! D101  D(39,35,38,40)        179.9881         estimate D2E/DX2                !
 ! D102  D(39,35,38,42)          0.0007         estimate D2E/DX2                !
 ! D103  D(34,36,40,38)          0.0341         estimate D2E/DX2                !
 ! D104  D(34,36,40,43)       -179.9964         estimate D2E/DX2                !
 ! D105  D(41,36,40,38)       -179.9846         estimate D2E/DX2                !
 ! D106  D(41,36,40,43)         -0.0151         estimate D2E/DX2                !
 ! D107  D(35,38,40,36)          0.0131         estimate D2E/DX2                !
 ! D108  D(35,38,40,43)       -179.9563         estimate D2E/DX2                !
 ! D109  D(42,38,40,36)       -179.9995         estimate D2E/DX2                !
 ! D110  D(42,38,40,43)          0.0311         estimate D2E/DX2                !
 ! D111  D(13,44,45,47)       -179.9729         estimate D2E/DX2                !
 ! D112  D(13,44,45,48)         -0.052          estimate D2E/DX2                !
 ! D113  D(46,44,45,47)          0.0323         estimate D2E/DX2                !
 ! D114  D(46,44,45,48)        179.9532         estimate D2E/DX2                !
 ! D115  D(13,44,46,49)       -179.9798         estimate D2E/DX2                !
 ! D116  D(13,44,46,50)         -0.0056         estimate D2E/DX2                !
 ! D117  D(45,44,46,49)          0.0149         estimate D2E/DX2                !
 ! D118  D(45,44,46,50)        179.9892         estimate D2E/DX2                !
 ! D119  D(44,45,47,51)         -0.0568         estimate D2E/DX2                !
 ! D120  D(44,45,47,52)        179.9619         estimate D2E/DX2                !
 ! D121  D(48,45,47,51)       -179.9777         estimate D2E/DX2                !
 ! D122  D(48,45,47,52)          0.041          estimate D2E/DX2                !
 ! D123  D(44,46,49,51)         -0.0376         estimate D2E/DX2                !
 ! D124  D(44,46,49,53)        179.975          estimate D2E/DX2                !
 ! D125  D(50,46,49,51)        179.9881         estimate D2E/DX2                !
 ! D126  D(50,46,49,53)          0.0007         estimate D2E/DX2                !
 ! D127  D(45,47,51,49)          0.0341         estimate D2E/DX2                !
 ! D128  D(45,47,51,54)       -179.9964         estimate D2E/DX2                !
 ! D129  D(52,47,51,49)       -179.9846         estimate D2E/DX2                !
 ! D130  D(52,47,51,54)         -0.0151         estimate D2E/DX2                !
 ! D131  D(46,49,51,47)          0.0131         estimate D2E/DX2                !
 ! D132  D(46,49,51,54)       -179.9563         estimate D2E/DX2                !
 ! D133  D(53,49,51,47)       -179.9995         estimate D2E/DX2                !
 ! D134  D(53,49,51,54)          0.031          estimate D2E/DX2                !
 --------------------------------------------------------------------------------
 Trust Radius=3.00D-01 FncErr=1.00D-07 GrdErr=1.00D-06 EigMax=2.50D+02 EigMin=1.00D-04
 Number of steps in this run=    296 maximum allowed number of steps=    324.
 GradGradGradGradGradGradGradGradGradGradGradGradGradGradGradGradGradGrad

 Stoichiometry    C24H28N2
 Framework group  C1[X(C24H28N2)]
 Deg. of freedom   156
 Full point group                 C1      NOp   1
 Largest Abelian subgroup         C1      NOp   1
 Largest concise Abelian subgroup C1      NOp   1
                         Standard orientation:                         
 ---------------------------------------------------------------------
 Center     Atomic      Atomic             Coordinates (Angstroms)
 Number     Number       Type             X           Y           Z
 ---------------------------------------------------------------------
      1          6           0       -1.426480    0.592480    0.881192
      2          6           0       -0.045930    0.539962    0.686785
      3          6           0        0.763166   -0.126677    1.606664
      4          6           0        0.191882   -0.740183    2.722218
      5          6           0       -1.188294   -0.687231    2.916762
      6          6           0       -1.997603   -0.021193    1.995989
      7          1           0        1.851272   -0.168651    1.453168
      8          1           0        0.830033   -1.265696    3.447405
      9          1           0       -1.638835   -1.170641    3.795854
     10          1           0       -3.085655    0.020255    2.149460
     11          7           0       -2.279079    1.294663   -0.088815
     12          7           0        0.555451    1.185961   -0.488769
     13          6           0        1.257514    0.178000   -1.296247
     14          1           0        1.405725    0.554576   -2.286764
     15          1           0        0.671588   -0.716312   -1.338633
     16          6           0       -3.250023    0.350932   -0.661126
     17          1           0       -4.083822    0.251083    0.001981
     18          1           0       -3.588836    0.717826   -1.607431
     19          6           0        1.510491    2.213076   -0.048501
     20          1           0        2.390771    1.740736    0.334776
     21          1           0        1.063495    2.810385    0.718518
     22          6           0       -2.995966    2.385010    0.588026
     23          1           0       -3.796992    1.978364    1.169315
     24          1           0       -2.320814    2.911254    1.230006
     25          6           0        1.887400    3.109239   -1.242834
     26          1           0        2.120153    4.092692   -0.891345
     27          1           0        2.739625    2.698014   -1.742341
     28          1           0        1.064302    3.159667   -1.924645
     29          6           0       -3.565825    3.355148   -0.463493
     30          1           0       -4.598140    3.130759   -0.633419
     31          1           0       -3.473029    4.360351   -0.108732
     32          1           0       -3.022247    3.248390   -1.378930
     33          6           0       -2.579519   -1.022084   -0.853094
     34          6           0       -2.779627   -2.033565    0.086765
     35          6           0       -1.772272   -1.254521   -1.966589
     36          6           0       -2.172040   -3.276954   -0.086564
     37          1           0       -3.415481   -1.849752    0.964913
     38          6           0       -1.165222   -2.498552   -2.140629
     39          1           0       -1.614592   -0.457486   -2.707535
     40          6           0       -1.364854   -3.509685   -1.200791
     41          1           0       -2.329215   -4.074061    0.654526
     42          1           0       -0.529127   -2.681662   -3.018881
     43          1           0       -0.885945   -4.490152   -1.337273
     44          6           0        2.622992   -0.132807   -0.655569
     45          6           0        3.609561    0.852314   -0.603705
     46          6           0        2.873433   -1.399096   -0.127041
     47          6           0        4.846499    0.570916   -0.024032
     48          1           0        3.412077    1.850296   -1.021165
     49          6           0        4.110349   -1.680441    0.453728
     50          1           0        2.095912   -2.175588   -0.167673
     51          6           0        5.096896   -0.695750    0.505189
     52          1           0        5.624393    1.347156    0.016321
     53          1           0        4.307382   -2.678817    0.870737
     54          1           0        6.072232   -0.917372    0.962244
 ---------------------------------------------------------------------
 Rotational constants (GHZ):           0.3008143           0.1738834           0.1458087
 Standard basis: 6-31G(d) (6D, 7F)
 There are   446 symmetry adapted cartesian basis functions of A   symmetry.
 There are   446 symmetry adapted basis functions of A   symmetry.
   446 basis functions,   840 primitive gaussians,   446 cartesian basis functions
    93 alpha electrons       93 beta electrons
       nuclear repulsion energy      2403.8100498906 Hartrees.
 NAtoms=   54 NActive=   54 NUniq=   54 SFac= 1.00D+00 NAtFMM=   60 NAOKFM=F Big=F
 Integral buffers will be    131072 words long.
 Raffenetti 2 integral format.
 Two-electron integral symmetry is turned on.
 ------------------------------------------------------------------------------
 Polarizable Continuum Model (PCM)
 =================================
 Model                : PCM.
 Atomic radii         : SMD-Coulomb.
 Polarization charges : Total charges.
 Charge compensation  : None.
 Solution method      : On-the-fly selection.
 Cavity type          : VdW (van der Waals Surface) (Alpha=1.000).
 Cavity algorithm     : GePol (No added spheres)
                        Default sphere list used, NSphG=   54.
                        Lebedev-Laikov grids with approx.  5.0 points / Ang**2.
                        Smoothing algorithm: York/Karplus (Gamma=1.0000).
                        Polarization charges: spherical gaussians, with
                                              point-specific exponents (IZeta= 3).
                        Self-potential: point-specific (ISelfS= 7).
                        Self-field    : sphere-specific E.n sum rule (ISelfD= 2).
 1st derivatives      : Analytical E(r).r(x)/FMM algorithm (CHGder, D1EAlg=3).
                        Cavity 1st derivative terms included.
 Solvent              : Toluene, Eps=   2.374100 Eps(inf)=   2.238315
 ------------------------------------------------------------------------------
 ------------------------------------------------------------------------------
 Atomic radii for non-electrostatic terms: SMD-CDS.
 ------------------------------------------------------------------------------
 Nuclear repulsion after PCM non-electrostatic terms =     2403.7951574209 Hartrees.
 One-electron integrals computed using PRISM.
 NBasis=   446 RedAO= T EigKep=  3.23D-04  NBF=   446
 NBsUse=   446 1.00D-06 EigRej= -1.00D+00 NBFU=   446
 ExpMin= 1.61D-01 ExpMax= 4.17D+03 ExpMxC= 6.27D+02 IAcc=3 IRadAn=         5 AccDes= 0.00D+00
 Harris functional with IExCor=  402 and IRadAn=       5 diagonalized for initial guess.
 HarFok:  IExCor=  402 AccDes= 0.00D+00 IRadAn=         5 IDoV= 1 UseB2=F ITyADJ=14
 ICtDFT=  3500011 ScaDFX=  1.000000  1.000000  1.000000  1.000000
 FoFCou: FMM=F IPFlag=           0 FMFlag=      100000 FMFlg1=           0
         NFxFlg=           0 DoJE=T BraDBF=F KetDBF=T FulRan=T
         wScrn=  0.000000 ICntrl=       500 IOpCl=  0 I1Cent=   200000004 NGrid=           0
         NMat0=    1 NMatS0=      1 NMatT0=    0 NMatD0=    1 NMtDS0=    0 NMtDT0=    0
 Petite list used in FoFCou.
 Requested convergence on RMS density matrix=1.00D-08 within 128 cycles.
 Requested convergence on MAX density matrix=1.00D-06.
 Requested convergence on             energy=1.00D-06.
 No special actions if energy rises.
 Inv3:  Mode=1 IEnd=    38556675.
 Iteration    1 A*A^-1 deviation from unit magnitude is 5.11D-15 for   3569.
 Iteration    1 A*A^-1 deviation from orthogonality  is 2.22D-15 for   3569    214.
 Iteration    1 A^-1*A deviation from unit magnitude is 5.33D-15 for   3569.
 Iteration    1 A^-1*A deviation from orthogonality  is 8.81D-15 for   3031   3003.
 Error on total polarization charges =  0.03789
 SCF Done:  E(RB3LYP) =  -1040.81915110     A.U. after   13 cycles
            NFock= 13  Conv=0.38D-08     -V/T= 2.0089
 SMD-CDS (non-electrostatic) energy       (kcal/mol) =      -9.35
 (included in total energy above)

 **********************************************************************

            Population analysis using the SCF Density.

 **********************************************************************

 Orbital symmetries:
       Occupied  (A) (A) (A) (A) (A) (A) (A) (A) (A) (A) (A) (A)
                 (A) (A) (A) (A) (A) (A) (A) (A) (A) (A) (A) (A)
                 (A) (A) (A) (A) (A) (A) (A) (A) (A) (A) (A) (A)
                 (A) (A) (A) (A) (A) (A) (A) (A) (A) (A) (A) (A)
                 (A) (A) (A) (A) (A) (A) (A) (A) (A) (A) (A) (A)
                 (A) (A) (A) (A) (A) (A) (A) (A) (A) (A) (A) (A)
                 (A) (A) (A) (A) (A) (A) (A) (A) (A) (A) (A) (A)
                 (A) (A) (A) (A) (A) (A) (A) (A) (A)
       Virtual   (A) (A) (A) (A) (A) (A) (A) (A) (A) (A) (A) (A)
                 (A) (A) (A) (A) (A) (A) (A) (A) (A) (A) (A) (A)
                 (A) (A) (A) (A) (A) (A) (A) (A) (A) (A) (A) (A)
                 (A) (A) (A) (A) (A) (A) (A) (A) (A) (A) (A) (A)
                 (A) (A) (A) (A) (A) (A) (A) (A) (A) (A) (A) (A)
                 (A) (A) (A) (A) (A) (A) (A) (A) (A) (A) (A) (A)
                 (A) (A) (A) (A) (A) (A) (A) (A) (A) (A) (A) (A)
                 (A) (A) (A) (A) (A) (A) (A) (A) (A) (A) (A) (A)
                 (A) (A) (A) (A) (A) (A) (A) (A) (A) (A) (A) (A)
                 (A) (A) (A) (A) (A) (A) (A) (A) (A) (A) (A) (A)
                 (A) (A) (A) (A) (A) (A) (A) (A) (A) (A) (A) (A)
                 (A) (A) (A) (A) (A) (A) (A) (A) (A) (A) (A) (A)
                 (A) (A) (A) (A) (A) (A) (A) (A) (A) (A) (A) (A)
                 (A) (A) (A) (A) (A) (A) (A) (A) (A) (A) (A) (A)
                 (A) (A) (A) (A) (A) (A) (A) (A) (A) (A) (A) (A)
                 (A) (A) (A) (A) (A) (A) (A) (A) (A) (A) (A) (A)
                 (A) (A) (A) (A) (A) (A) (A) (A) (A) (A) (A) (A)
                 (A) (A) (A) (A) (A) (A) (A) (A) (A) (A) (A) (A)
                 (A) (A) (A) (A) (A) (A) (A) (A) (A) (A) (A) (A)
                 (A) (A) (A) (A) (A) (A) (A) (A) (A) (A) (A) (A)
                 (A) (A) (A) (A) (A) (A) (A) (A) (A) (A) (A) (A)
                 (A) (A) (A) (A) (A) (A) (A) (A) (A) (A) (A) (A)
                 (A) (A) (A) (A) (A) (A) (A) (A) (A) (A) (A) (A)
                 (A) (A) (A) (A) (A) (A) (A) (A) (A) (A) (A) (A)
                 (A) (A) (A) (A) (A) (A) (A) (A) (A) (A) (A) (A)
                 (A) (A) (A) (A) (A) (A) (A) (A) (A) (A) (A) (A)
                 (A) (A) (A) (A) (A) (A) (A) (A) (A) (A) (A) (A)
                 (A) (A) (A) (A) (A) (A) (A) (A) (A) (A) (A) (A)
                 (A) (A) (A) (A) (A) (A) (A) (A) (A) (A) (A) (A)
                 (A) (A) (A) (A) (A)
 The electronic state is 1-A.
 Alpha  occ. eigenvalues --  -14.31513 -14.31482 -10.20247 -10.20176 -10.19772
 Alpha  occ. eigenvalues --  -10.19218 -10.19043 -10.18682 -10.18394 -10.18344
 Alpha  occ. eigenvalues --  -10.18313 -10.18208 -10.18157 -10.18148 -10.18142
 Alpha  occ. eigenvalues --  -10.18102 -10.18088 -10.18073 -10.18036 -10.18005
 Alpha  occ. eigenvalues --  -10.17935 -10.17920 -10.17370 -10.17338 -10.15777
 Alpha  occ. eigenvalues --  -10.15547  -0.93095  -0.91284  -0.84652  -0.84480
 Alpha  occ. eigenvalues --   -0.83058  -0.76085  -0.75996  -0.75285  -0.74066
 Alpha  occ. eigenvalues --   -0.73642  -0.73087  -0.72150  -0.70825  -0.66345
 Alpha  occ. eigenvalues --   -0.65603  -0.61542  -0.60652  -0.59753  -0.59570
 Alpha  occ. eigenvalues --   -0.58363  -0.58012  -0.56078  -0.55355  -0.51775
 Alpha  occ. eigenvalues --   -0.50906  -0.49652  -0.47593  -0.47427  -0.46997
 Alpha  occ. eigenvalues --   -0.45962  -0.45411  -0.45153  -0.43991  -0.43876
 Alpha  occ. eigenvalues --   -0.43554  -0.42860  -0.42444  -0.41757  -0.40955
 Alpha  occ. eigenvalues --   -0.40723  -0.39499  -0.39200  -0.38896  -0.38025
 Alpha  occ. eigenvalues --   -0.37692  -0.37046  -0.36497  -0.35736  -0.35496
 Alpha  occ. eigenvalues --   -0.35138  -0.34775  -0.34166  -0.34052  -0.33518
 Alpha  occ. eigenvalues --   -0.33164  -0.32546  -0.32222  -0.31865  -0.31443
 Alpha  occ. eigenvalues --   -0.25235  -0.24443  -0.24275  -0.23307  -0.23062
 Alpha  occ. eigenvalues --   -0.22231  -0.21717  -0.19735
 Alpha virt. eigenvalues --   -0.00661  -0.00099   0.00401   0.00788   0.01728
 Alpha virt. eigenvalues --    0.02040   0.08109   0.09990   0.10299   0.10568
 Alpha virt. eigenvalues --    0.12434   0.12827   0.13242   0.13874   0.14865
 Alpha virt. eigenvalues --    0.15109   0.15229   0.15495   0.15876   0.15981
 Alpha virt. eigenvalues --    0.17142   0.17318   0.17751   0.17969   0.18144
 Alpha virt. eigenvalues --    0.18414   0.18783   0.19228   0.19756   0.20244
 Alpha virt. eigenvalues --    0.20673   0.21174   0.21609   0.22027   0.22647
 Alpha virt. eigenvalues --    0.22808   0.23610   0.23791   0.24393   0.25322
 Alpha virt. eigenvalues --    0.25941   0.26240   0.26783   0.28306   0.29071
 Alpha virt. eigenvalues --    0.30125   0.31078   0.31470   0.31878   0.32792
 Alpha virt. eigenvalues --    0.33355   0.33923   0.34934   0.35856   0.36396
 Alpha virt. eigenvalues --    0.36637   0.36996   0.37258   0.39774   0.46240
 Alpha virt. eigenvalues --    0.47352   0.49047   0.49890   0.50483   0.51251
 Alpha virt. eigenvalues --    0.52218   0.52479   0.52999   0.53843   0.55003
 Alpha virt. eigenvalues --    0.55408   0.55550   0.55804   0.56060   0.56990
 Alpha virt. eigenvalues --    0.57141   0.57494   0.57775   0.58043   0.58512
 Alpha virt. eigenvalues --    0.59296   0.60066   0.60510   0.60723   0.61086
 Alpha virt. eigenvalues --    0.61180   0.61283   0.61667   0.61744   0.62007
 Alpha virt. eigenvalues --    0.62401   0.62652   0.63129   0.63739   0.63992
 Alpha virt. eigenvalues --    0.64567   0.65635   0.65972   0.66525   0.67184
 Alpha virt. eigenvalues --    0.67734   0.68090   0.69644   0.69938   0.71636
 Alpha virt. eigenvalues --    0.71846   0.73646   0.75064   0.75395   0.77649
 Alpha virt. eigenvalues --    0.79265   0.79523   0.80927   0.81938   0.82027
 Alpha virt. eigenvalues --    0.83089   0.83329   0.83658   0.83934   0.84239
 Alpha virt. eigenvalues --    0.84300   0.84561   0.85085   0.85426   0.86008
 Alpha virt. eigenvalues --    0.86251   0.86955   0.87879   0.88184   0.88630
 Alpha virt. eigenvalues --    0.89187   0.89678   0.90432   0.90553   0.91000
 Alpha virt. eigenvalues --    0.91392   0.92109   0.92317   0.92803   0.93604
 Alpha virt. eigenvalues --    0.94148   0.94562   0.95095   0.95700   0.96434
 Alpha virt. eigenvalues --    0.97571   0.98230   0.99955   1.00123   1.00654
 Alpha virt. eigenvalues --    1.00941   1.01495   1.02397   1.02669   1.03150
 Alpha virt. eigenvalues --    1.03847   1.06124   1.06564   1.07542   1.08923
 Alpha virt. eigenvalues --    1.09234   1.10413   1.12555   1.13221   1.15332
 Alpha virt. eigenvalues --    1.16014   1.16263   1.16975   1.17698   1.18879
 Alpha virt. eigenvalues --    1.19558   1.20731   1.21680   1.23789   1.24875
 Alpha virt. eigenvalues --    1.26203   1.27200   1.27712   1.30363   1.32075
 Alpha virt. eigenvalues --    1.34260   1.34398   1.36087   1.38705   1.39671
 Alpha virt. eigenvalues --    1.41653   1.42437   1.42811   1.44179   1.45229
 Alpha virt. eigenvalues --    1.46469   1.47019   1.47253   1.48242   1.49400
 Alpha virt. eigenvalues --    1.49688   1.49923   1.50536   1.51114   1.51781
 Alpha virt. eigenvalues --    1.51898   1.52738   1.53745   1.54428   1.58363
 Alpha virt. eigenvalues --    1.58847   1.63182   1.64233   1.66037   1.66715
 Alpha virt. eigenvalues --    1.68566   1.68726   1.70857   1.71452   1.74740
 Alpha virt. eigenvalues --    1.79949   1.80892   1.81740   1.82216   1.83550
 Alpha virt. eigenvalues --    1.83777   1.85097   1.86583   1.87522   1.88491
 Alpha virt. eigenvalues --    1.89183   1.90196   1.90729   1.91358   1.92694
 Alpha virt. eigenvalues --    1.93114   1.93375   1.94166   1.95622   1.96444
 Alpha virt. eigenvalues --    1.97662   1.98520   1.99258   2.00598   2.01143
 Alpha virt. eigenvalues --    2.02130   2.03183   2.04147   2.04828   2.05618
 Alpha virt. eigenvalues --    2.07703   2.08060   2.10066   2.11156   2.12060
 Alpha virt. eigenvalues --    2.12975   2.14017   2.14391   2.15220   2.16674
 Alpha virt. eigenvalues --    2.16854   2.17352   2.18253   2.18621   2.19834
 Alpha virt. eigenvalues --    2.20170   2.21254   2.23178   2.23537   2.24170
 Alpha virt. eigenvalues --    2.26154   2.26636   2.28645   2.29961   2.30155
 Alpha virt. eigenvalues --    2.31210   2.31768   2.32589   2.32805   2.33867
 Alpha virt. eigenvalues --    2.34171   2.35920   2.37207   2.37914   2.38916
 Alpha virt. eigenvalues --    2.40568   2.42714   2.44630   2.45354   2.46691
 Alpha virt. eigenvalues --    2.48265   2.49958   2.52984   2.55607   2.57123
 Alpha virt. eigenvalues --    2.57830   2.59771   2.60663   2.61307   2.63150
 Alpha virt. eigenvalues --    2.64379   2.65909   2.66439   2.67663   2.67892
 Alpha virt. eigenvalues --    2.70517   2.72289   2.73447   2.73994   2.75132
 Alpha virt. eigenvalues --    2.75417   2.75690   2.76359   2.77103   2.78013
 Alpha virt. eigenvalues --    2.78865   2.79598   2.80597   2.81526   2.84646
 Alpha virt. eigenvalues --    2.87460   2.89199   2.92022   2.95947   2.98481
 Alpha virt. eigenvalues --    3.06739   3.08191   3.12792   3.20598   3.42044
 Alpha virt. eigenvalues --    3.42134   3.45346   4.09441   4.10520   4.12481
 Alpha virt. eigenvalues --    4.13791   4.15858   4.17841   4.19277   4.20526
 Alpha virt. eigenvalues --    4.22409   4.25276   4.26815   4.29717   4.34069
 Alpha virt. eigenvalues --    4.36594   4.39508   4.39818   4.42140   4.45861
 Alpha virt. eigenvalues --    4.47350   4.50872   4.52696   4.57696   4.65076
 Alpha virt. eigenvalues --    4.74668   4.76040   4.87900
          Condensed to atoms (all electrons):
 Mulliken charges:
               1
     1  C    0.211592
     2  C    0.207522
     3  C   -0.168843
     4  C   -0.162860
     5  C   -0.144381
     6  C   -0.184665
     7  H    0.175599
     8  H    0.135576
     9  H    0.133240
    10  H    0.143369
    11  N   -0.456625
    12  N   -0.448367
    13  C   -0.229945
    14  H    0.156650
    15  H    0.186050
    16  C   -0.187522
    17  H    0.126682
    18  H    0.160541
    19  C   -0.168396
    20  H    0.187428
    21  H    0.147737
    22  C   -0.126855
    23  H    0.125515
    24  H    0.156340
    25  C   -0.485982
    26  H    0.157393
    27  H    0.192045
    28  H    0.171827
    29  C   -0.473127
    30  H    0.149563
    31  H    0.152188
    32  H    0.169078
    33  C    0.114612
    34  C   -0.157308
    35  C   -0.176628
    36  C   -0.147272
    37  H    0.135048
    38  C   -0.150770
    39  H    0.148550
    40  C   -0.142693
    41  H    0.138561
    42  H    0.140763
    43  H    0.138500
    44  C    0.106231
    45  C   -0.180028
    46  C   -0.203395
    47  C   -0.156629
    48  H    0.115060
    49  C   -0.142327
    50  H    0.148092
    51  C   -0.144750
    52  H    0.135960
    53  H    0.136108
    54  H    0.135949
 Sum of Mulliken charges =  -0.00000
 Mulliken charges with hydrogens summed into heavy atoms:
               1
     1  C    0.211592
     2  C    0.207522
     3  C    0.006756
     4  C   -0.027284
     5  C   -0.011141
     6  C   -0.041296
    11  N   -0.456625
    12  N   -0.448367
    13  C    0.112755
    16  C    0.099701
    19  C    0.166769
    22  C    0.155000
    25  C    0.035283
    29  C   -0.002299
    33  C    0.114612
    34  C   -0.022260
    35  C   -0.028078
    36  C   -0.008711
    38  C   -0.010007
    40  C   -0.004193
    44  C    0.106231
    45  C   -0.064968
    46  C   -0.055303
    47  C   -0.020669
    49  C   -0.006219
    51  C   -0.008801
 Electronic spatial extent (au):  <R**2>=           8405.0296
 Charge=             -0.0000 electrons
 Dipole moment (field-independent basis, Debye):
    X=             -0.2775    Y=             -0.1212    Z=              0.7809  Tot=              0.8376
 Quadrupole moment (field-independent basis, Debye-Ang):
   XX=           -146.5534   YY=           -146.9209   ZZ=           -151.3585
   XY=              0.3856   XZ=             -2.6306   YZ=             -3.1622
 Traceless Quadrupole moment (field-independent basis, Debye-Ang):
   XX=              1.7242   YY=              1.3567   ZZ=             -3.0809
   XY=              0.3856   XZ=             -2.6306   YZ=             -3.1622
 Octapole moment (field-independent basis, Debye-Ang**2):
  XXX=             -3.2096  YYY=             -0.4191  ZZZ=             -6.1861  XYY=             15.5828
  XXY=             25.3167  XXZ=             34.1971  XZZ=             -9.8505  YZZ=             -8.0535
  YYZ=              9.4132  XYZ=             -0.0561
 Hexadecapole moment (field-independent basis, Debye-Ang**3):
 XXXX=          -6353.0370 YYYY=          -3136.7937 ZZZZ=          -1676.9101 XXXY=            -15.7952
 XXXZ=             48.4642 YYYX=            -15.9609 YYYZ=              3.8810 ZZZX=            -17.7728
 ZZZY=            -46.6959 XXYY=          -1627.3007 XXZZ=          -1406.3202 YYZZ=           -833.9538
 XXYZ=            -79.1670 YYXZ=            -34.3184 ZZXY=             -9.5525
 N-N= 2.403795157421D+03 E-N=-7.219773478542D+03  KE= 1.031622101850D+03
 D1PCM: PCM CHGder 1st derivatives, ID1Alg=3 FixD1E=F DoIter=F DoCFld=F I1PDM=0.
 Calling FoFJK, ICntrl=      2127 FMM=F ISym2X=0 I1Cent= 0 IOpClX= 0 NMat=1 NMatS=1 NMatT=0.
 ***** Axes restored to original set *****
 -------------------------------------------------------------------
 Center     Atomic                   Forces (Hartrees/Bohr)
 Number     Number              X              Y              Z
 -------------------------------------------------------------------
      1        6          -0.010141911   -0.015233406   -0.006835319
      2        6           0.010014604   -0.017277254   -0.001065193
      3        6           0.003702344    0.014286669   -0.006376248
      4        6           0.004958516    0.007434533    0.000347216
      5        6          -0.007055671    0.008296525   -0.001137238
      6        6          -0.001398989    0.009950943   -0.008381849
      7        1          -0.018036325    0.003601948   -0.004562635
      8        1          -0.003915846   -0.007023798   -0.000126389
      9        1           0.003858600   -0.006851131    0.000019177
     10        1           0.009556110    0.000342477   -0.001353218
     11        7           0.010609589    0.022737207   -0.005535558
     12        7          -0.014446330    0.022086974   -0.006023864
     13        6           0.025459186    0.022693977   -0.016535963
     14        1           0.002727125   -0.018407845    0.003208933
     15        1          -0.007422721    0.001477022    0.010391160
     16        6           0.032819396    0.014222644    0.016014660
     17        1          -0.021506824    0.008895888    0.001218942
     18        1          -0.005847981   -0.016780004    0.001965169
     19        6          -0.028456458   -0.033142446   -0.003902392
     20        1          -0.003232806    0.013180566   -0.020544417
     21        1          -0.011957068    0.004417550   -0.011330337
     22        6           0.010008841   -0.030669048    0.010819987
     23        1          -0.017730328    0.015165811   -0.004160100
     24        1           0.010010236    0.006982652   -0.010702325
     25        6          -0.015958876    0.016755290   -0.006522602
     26        1           0.005129974   -0.006146849   -0.016473935
     27        1           0.004037924   -0.023354749    0.000743155
     28        1          -0.011018933   -0.012105039    0.004567173
     29        6           0.001158183    0.021817760    0.001602571
     30        1          -0.016351678   -0.007770743    0.005077926
     31        1          -0.002761590   -0.007307983   -0.016401554
     32        1           0.010760057   -0.011633882    0.005637148
     33        6          -0.017008446   -0.014697596   -0.006034367
     34        6          -0.006488720    0.005647640    0.006955808
     35        6           0.000682318   -0.007352583    0.001957944
     36        6          -0.002855056    0.008710489    0.002246553
     37        1           0.006326235   -0.006067232    0.007585140
     38        6           0.006692899   -0.004885734    0.005902837
     39        1          -0.002472436    0.007906086    0.001662321
     40        6           0.005809499    0.004563437    0.008126840
     41        1           0.001639040   -0.007713643   -0.002294574
     42        1          -0.005820720    0.004187720   -0.003793688
     43        1          -0.004045645   -0.003461736   -0.006202439
     44        6          -0.002988361   -0.016278874    0.033719223
     45        6           0.030522038   -0.001205322    0.007339603
     46        6           0.005294784    0.001480876    0.009344136
     47        6           0.007236019    0.000039386   -0.004221915
     48        1           0.026866030    0.024274628    0.023702299
     49        6           0.002186702    0.009287915    0.006543082
     50        1           0.005050340   -0.002787177   -0.006058265
     51        6           0.008967020    0.006588947   -0.002593824
     52        1          -0.005423775    0.002136363    0.005452302
     53        1          -0.001070286   -0.006725778   -0.004272065
     54        1          -0.006669828   -0.004290070    0.001290970
 -------------------------------------------------------------------
 Cartesian Forces:  Max     0.033719223 RMS     0.011701506

 GradGradGradGradGradGradGradGradGradGradGradGradGradGradGradGradGradGrad
 Berny optimization.
 FormGI is forming the generalized inverse of G from B-inverse, IUseBI=4.
 Internal  Forces:  Max     0.255312183 RMS     0.026674269
 Search for a local minimum.
 Step number   1 out of a maximum of  296
 All quantities printed in internal units (Hartrees-Bohrs-Radians)
 Mixed Optimization -- RFO/linear search
 Second derivative matrix not updated -- first step.
 ITU=  0
     Eigenvalues ---    0.00237   0.00237   0.00237   0.00237   0.00766
     Eigenvalues ---    0.00766   0.00766   0.00766   0.00766   0.00766
     Eigenvalues ---    0.01388   0.01388   0.01710   0.01747   0.02152
     Eigenvalues ---    0.02152   0.02152   0.02153   0.02153   0.02153
     Eigenvalues ---    0.02154   0.02154   0.02154   0.02155   0.02155
     Eigenvalues ---    0.02155   0.02155   0.02155   0.02155   0.02155
     Eigenvalues ---    0.02155   0.02156   0.02156   0.02156   0.02156
     Eigenvalues ---    0.02157   0.02157   0.03454   0.03454   0.04502
     Eigenvalues ---    0.04502   0.05269   0.05269   0.05496   0.05496
     Eigenvalues ---    0.05720   0.05720   0.05720   0.05720   0.06518
     Eigenvalues ---    0.06518   0.08860   0.08860   0.09364   0.09364
     Eigenvalues ---    0.12453   0.12453   0.12902   0.12902   0.16000
     Eigenvalues ---    0.16000   0.16000   0.16000   0.16000   0.16000
     Eigenvalues ---    0.16000   0.16000   0.16000   0.16000   0.16000
     Eigenvalues ---    0.16000   0.16000   0.16000   0.16000   0.16000
     Eigenvalues ---    0.16000   0.16000   0.16000   0.16000   0.16276
     Eigenvalues ---    0.16276   0.17820   0.17820   0.21985   0.21985
     Eigenvalues ---    0.22000   0.22000   0.22000   0.22000   0.22000
     Eigenvalues ---    0.22022   0.22022   0.22494   0.23486   0.23486
     Eigenvalues ---    0.24487   0.25000   0.25000   0.25000   0.25000
     Eigenvalues ---    0.28519   0.28519   0.28519   0.28519   0.33709
     Eigenvalues ---    0.33709   0.33709   0.33718   0.33718   0.33718
     Eigenvalues ---    0.33718   0.33718   0.33718   0.33720   0.33720
     Eigenvalues ---    0.33726   0.33726   0.33726   0.35740   0.35740
     Eigenvalues ---    0.35740   0.35740   0.35740   0.35740   0.37230
     Eigenvalues ---    0.37230   0.37230   0.37230   0.37230   0.37230
     Eigenvalues ---    0.37230   0.37230   0.37230   0.37230   0.37230
     Eigenvalues ---    0.37230   0.37230   0.37230   0.42121   0.42121
     Eigenvalues ---    0.42214   0.42300   0.42300   0.42390   0.46412
     Eigenvalues ---    0.46412   0.46412   0.46453   0.46453   0.46453
     Eigenvalues ---    0.46466   0.46466   0.46466   0.46497   0.46497
     Eigenvalues ---    0.46497
 RFO step:  Lambda=-3.65926654D-01 EMin= 2.36824190D-03
 Linear search not attempted -- first point.
 Maximum step size (   0.300) exceeded in Quadratic search.
    -- Step size scaled by   0.434
 Iteration  1 RMS(Cart)=  0.23034583 RMS(Int)=  0.00766189
 Iteration  2 RMS(Cart)=  0.04997510 RMS(Int)=  0.00056498
 Iteration  3 RMS(Cart)=  0.00107419 RMS(Int)=  0.00046700
 Iteration  4 RMS(Cart)=  0.00000113 RMS(Int)=  0.00046700
 Iteration  5 RMS(Cart)=  0.00000000 RMS(Int)=  0.00046700
 Variable       Old X    -DE/DX   Delta X   Delta X   Delta X     New X
                                 (Linear)    (Quad)   (Total)
    R1        2.63647   0.01478   0.00000   0.00796   0.00797   2.64444
    R2        2.63584   0.00766   0.00000   0.00408   0.00408   2.63992
    R3        2.77790   0.00101   0.00000   0.00061   0.00061   2.77850
    R4        2.63562   0.01245   0.00000   0.00666   0.00667   2.64229
    R5        2.77790   0.00748   0.00000   0.00448   0.00448   2.78238
    R6        2.63697  -0.00013   0.00000  -0.00015  -0.00015   2.63683
    R7        2.07809  -0.01804   0.00000  -0.01113  -0.01113   2.06696
    R8        2.63584  -0.00321   0.00000  -0.00192  -0.00193   2.63391
    R9        2.07809  -0.00804   0.00000  -0.00496  -0.00496   2.07313
   R10        2.63643  -0.00359   0.00000  -0.00204  -0.00204   2.63438
   R11        2.07825  -0.00786   0.00000  -0.00485  -0.00485   2.07339
   R12        2.07795  -0.00956   0.00000  -0.00590  -0.00590   2.07205
   R13        2.77790   0.03613   0.00000   0.02167   0.02167   2.79957
   R14        2.77790   0.01018   0.00000   0.00611   0.00611   2.78401
   R15        2.77790   0.10619   0.00000   0.06371   0.06371   2.84161
   R16        2.77790   0.01051   0.00000   0.00631   0.00631   2.78420
   R17        2.02201   0.01877   0.00000   0.01103   0.01103   2.03304
   R18        2.02201   0.01245   0.00000   0.00732   0.00732   2.02932
   R19        2.91018   0.05488   0.00000   0.03657   0.03657   2.94675
   R20        2.02201   0.02257   0.00000   0.01327   0.01327   2.03527
   R21        2.02201   0.01766   0.00000   0.01038   0.01038   2.03239
   R22        2.91018  -0.00139   0.00000  -0.00092  -0.00092   2.90925
   R23        2.02201   0.00354   0.00000   0.00208   0.00208   2.02409
   R24        2.02201   0.01665   0.00000   0.00979   0.00979   2.03180
   R25        2.91018   0.01948   0.00000   0.01299   0.01299   2.92316
   R26        2.02201   0.02261   0.00000   0.01329   0.01329   2.03530
   R27        2.02201   0.01589   0.00000   0.00934   0.00934   2.03135
   R28        2.91018   0.00731   0.00000   0.00487   0.00487   2.91505
   R29        2.02201   0.01788   0.00000   0.01051   0.01051   2.03252
   R30        2.02201   0.00646   0.00000   0.00379   0.00379   2.02580
   R31        2.02201   0.01685   0.00000   0.00990   0.00990   2.03191
   R32        2.02201   0.01787   0.00000   0.01051   0.01051   2.03251
   R33        2.02201   0.01756   0.00000   0.01032   0.01032   2.03233
   R34        2.02201   0.01660   0.00000   0.00976   0.00976   2.03177
   R35        2.63647   0.00613   0.00000   0.00324   0.00324   2.63972
   R36        2.63584   0.00347   0.00000   0.00185   0.00185   2.63769
   R37        2.63562   0.00145   0.00000   0.00076   0.00076   2.63638
   R38        2.07805  -0.01133   0.00000  -0.00699  -0.00699   2.07106
   R39        2.63643   0.00289   0.00000   0.00151   0.00151   2.63794
   R40        2.07795  -0.00839   0.00000  -0.00518  -0.00518   2.07277
   R41        2.63697   0.00040   0.00000   0.00017   0.00017   2.63715
   R42        2.07809  -0.00821   0.00000  -0.00507  -0.00507   2.07303
   R43        2.63584  -0.00007   0.00000  -0.00007  -0.00007   2.63576
   R44        2.07825  -0.00811   0.00000  -0.00500  -0.00500   2.07324
   R45        2.07809  -0.00817   0.00000  -0.00504  -0.00504   2.07305
   R46        2.63647   0.02164   0.00000   0.01160   0.01163   2.64810
   R47        2.63584   0.01470   0.00000   0.00787   0.00790   2.64375
   R48        2.63562   0.00658   0.00000   0.00353   0.00353   2.63915
   R49        2.07805  -0.03722   0.00000  -0.02297  -0.02297   2.05508
   R50        2.63643   0.00126   0.00000   0.00056   0.00057   2.63700
   R51        2.07795  -0.00833   0.00000  -0.00514  -0.00514   2.07281
   R52        2.63697  -0.00726   0.00000  -0.00399  -0.00402   2.63295
   R53        2.07809  -0.00798   0.00000  -0.00493  -0.00493   2.07317
   R54        2.63584  -0.00953   0.00000  -0.00526  -0.00529   2.63054
   R55        2.07825  -0.00803   0.00000  -0.00496  -0.00496   2.07329
   R56        2.07809  -0.00803   0.00000  -0.00496  -0.00496   2.07314
    A1        2.09437  -0.00224   0.00000  -0.00121  -0.00121   2.09316
    A2        2.09435  -0.00218   0.00000  -0.00172  -0.00173   2.09262
    A3        2.09447   0.00442   0.00000   0.00293   0.00292   2.09739
    A4        2.09455  -0.01159   0.00000  -0.00768  -0.00767   2.08687
    A5        2.09406  -0.01906   0.00000  -0.01367  -0.01368   2.08038
    A6        2.09458   0.03066   0.00000   0.02136   0.02135   2.11593
    A7        2.09429   0.00742   0.00000   0.00554   0.00555   2.09984
    A8        2.09462   0.00004   0.00000   0.00032   0.00032   2.09493
    A9        2.09427  -0.00746   0.00000  -0.00586  -0.00587   2.08841
   A10        2.09429   0.00132   0.00000   0.00044   0.00043   2.09472
   A11        2.09407  -0.00079   0.00000  -0.00033  -0.00033   2.09374
   A12        2.09483  -0.00053   0.00000  -0.00011  -0.00011   2.09472
   A13        2.09448  -0.00204   0.00000  -0.00217  -0.00218   2.09230
   A14        2.09459   0.00111   0.00000   0.00116   0.00116   2.09575
   A15        2.09411   0.00093   0.00000   0.00101   0.00102   2.09513
   A16        2.09440   0.00713   0.00000   0.00508   0.00508   2.09948
   A17        2.09453  -0.00320   0.00000  -0.00224  -0.00224   2.09229
   A18        2.09426  -0.00393   0.00000  -0.00284  -0.00284   2.09142
   A19        1.91063   0.03883   0.00000   0.03283   0.03285   1.94348
   A20        1.91063  -0.01734   0.00000  -0.01327  -0.01325   1.89738
   A21        1.91063  -0.01050   0.00000  -0.00727  -0.00720   1.90343
   A22        1.91063  -0.03707   0.00000  -0.02392  -0.02482   1.88581
   A23        1.91063  -0.02834   0.00000  -0.01675  -0.01733   1.89330
   A24        1.91063   0.13490   0.00000   0.11278   0.11293   2.02356
   A25        1.91063  -0.05451   0.00000  -0.03332  -0.03668   1.87395
   A26        1.91063  -0.08843   0.00000  -0.06962  -0.06715   1.84348
   A27        1.91063   0.25531   0.00000   0.19161   0.19185   2.10248
   A28        1.91063   0.02589   0.00000   0.01027   0.00700   1.91764
   A29        1.91063  -0.04577   0.00000  -0.02583  -0.02879   1.88185
   A30        1.91063  -0.09250   0.00000  -0.07310  -0.07063   1.84001
   A31        1.91063  -0.00920   0.00000  -0.00424  -0.00445   1.90618
   A32        1.91063  -0.02224   0.00000  -0.01765  -0.01747   1.89316
   A33        1.91063   0.06232   0.00000   0.04690   0.04691   1.95754
   A34        1.91063   0.00448   0.00000   0.00068   0.00050   1.91113
   A35        1.91063  -0.01212   0.00000  -0.00703  -0.00730   1.90333
   A36        1.91063  -0.02324   0.00000  -0.01867  -0.01853   1.89211
   A37        1.91063   0.00863   0.00000   0.00963   0.00952   1.92016
   A38        1.91063  -0.00225   0.00000  -0.00457  -0.00473   1.90590
   A39        1.91063  -0.00762   0.00000  -0.00520  -0.00535   1.90528
   A40        1.91063  -0.00775   0.00000  -0.00724  -0.00711   1.90352
   A41        1.91063   0.02487   0.00000   0.02360   0.02358   1.93422
   A42        1.91063  -0.01588   0.00000  -0.01621  -0.01626   1.89438
   A43        1.91063   0.00076   0.00000   0.00122   0.00122   1.91185
   A44        1.91063  -0.00518   0.00000  -0.00434  -0.00434   1.90629
   A45        1.91063   0.00792   0.00000   0.00611   0.00610   1.91674
   A46        1.91063  -0.00103   0.00000  -0.00156  -0.00156   1.90907
   A47        1.91063  -0.00296   0.00000  -0.00212  -0.00213   1.90851
   A48        1.91063   0.00050   0.00000   0.00069   0.00070   1.91133
   A49        1.91063  -0.00007   0.00000  -0.00012  -0.00016   1.91047
   A50        1.91063   0.03224   0.00000   0.02696   0.02692   1.93755
   A51        1.91063  -0.00433   0.00000  -0.00388  -0.00389   1.90675
   A52        1.91063  -0.01234   0.00000  -0.00958  -0.00966   1.90098
   A53        1.91063  -0.00230   0.00000  -0.00262  -0.00263   1.90801
   A54        1.91063  -0.01320   0.00000  -0.01077  -0.01078   1.89986
   A55        1.91063   0.00740   0.00000   0.00617   0.00617   1.91680
   A56        1.91063   0.00452   0.00000   0.00369   0.00368   1.91432
   A57        1.91063   0.00005   0.00000   0.00001   0.00000   1.91064
   A58        1.91063  -0.00558   0.00000  -0.00454  -0.00455   1.90608
   A59        1.91063  -0.00323   0.00000  -0.00259  -0.00259   1.90804
   A60        1.91063  -0.00316   0.00000  -0.00275  -0.00275   1.90789
   A61        2.09435   0.01497   0.00000   0.01052   0.01052   2.10486
   A62        2.09447  -0.00648   0.00000  -0.00459  -0.00460   2.08987
   A63        2.09437  -0.00849   0.00000  -0.00593  -0.00593   2.08844
   A64        2.09455   0.00403   0.00000   0.00299   0.00299   2.09754
   A65        2.09406  -0.00110   0.00000  -0.00074  -0.00074   2.09332
   A66        2.09458  -0.00293   0.00000  -0.00225  -0.00225   2.09233
   A67        2.09440   0.00472   0.00000   0.00349   0.00350   2.09789
   A68        2.09453  -0.00338   0.00000  -0.00259  -0.00259   2.09194
   A69        2.09426  -0.00134   0.00000  -0.00090  -0.00090   2.09335
   A70        2.09429   0.00112   0.00000   0.00073   0.00072   2.09502
   A71        2.09462  -0.00062   0.00000  -0.00041  -0.00041   2.09421
   A72        2.09427  -0.00050   0.00000  -0.00032  -0.00032   2.09396
   A73        2.09448   0.00049   0.00000   0.00026   0.00026   2.09473
   A74        2.09411  -0.00021   0.00000  -0.00010  -0.00010   2.09402
   A75        2.09459  -0.00028   0.00000  -0.00016  -0.00016   2.09444
   A76        2.09429  -0.00187   0.00000  -0.00154  -0.00154   2.09275
   A77        2.09407   0.00098   0.00000   0.00081   0.00081   2.09488
   A78        2.09483   0.00089   0.00000   0.00073   0.00073   2.09556
   A79        2.09435   0.11344   0.00000   0.07970   0.07963   2.17398
   A80        2.09447  -0.07386   0.00000  -0.05226  -0.05231   2.04216
   A81        2.09437  -0.03958   0.00000  -0.02745  -0.02741   2.06696
   A82        2.09455   0.01323   0.00000   0.01012   0.01014   2.10468
   A83        2.09406   0.00959   0.00000   0.00831   0.00829   2.10235
   A84        2.09458  -0.02283   0.00000  -0.01844  -0.01846   2.07612
   A85        2.09440   0.02494   0.00000   0.01838   0.01842   2.11281
   A86        2.09453  -0.01326   0.00000  -0.00984  -0.00986   2.08467
   A87        2.09426  -0.01168   0.00000  -0.00854  -0.00856   2.08570
   A88        2.09429   0.00812   0.00000   0.00564   0.00560   2.09989
   A89        2.09462  -0.00417   0.00000  -0.00291  -0.00289   2.09172
   A90        2.09427  -0.00395   0.00000  -0.00273  -0.00271   2.09157
   A91        2.09448   0.00076   0.00000  -0.00023  -0.00025   2.09423
   A92        2.09411  -0.00030   0.00000   0.00017   0.00019   2.09430
   A93        2.09459  -0.00046   0.00000   0.00005   0.00006   2.09466
   A94        2.09429  -0.00748   0.00000  -0.00647  -0.00653   2.08776
   A95        2.09407   0.00392   0.00000   0.00339   0.00342   2.09748
   A96        2.09483   0.00355   0.00000   0.00308   0.00311   2.09794
    D1        0.00056   0.00047   0.00000   0.00053   0.00054   0.00111
    D2        3.14078   0.00590   0.00000   0.00667   0.00660  -3.13581
    D3       -3.14112  -0.00614   0.00000  -0.00694  -0.00692   3.13515
    D4       -0.00091  -0.00071   0.00000  -0.00081  -0.00086  -0.00177
    D5        0.00026  -0.00195   0.00000  -0.00221  -0.00222  -0.00196
    D6        3.14140  -0.00277   0.00000  -0.00313  -0.00314   3.13827
    D7       -3.14124   0.00466   0.00000   0.00527   0.00526  -3.13598
    D8       -0.00010   0.00384   0.00000   0.00435   0.00435   0.00425
    D9        2.09476   0.00210   0.00000   0.00097   0.00101   2.09578
   D10       -2.09403   0.00240   0.00000   0.00405   0.00401  -2.09002
   D11       -1.04692  -0.00451   0.00000  -0.00651  -0.00647  -1.05339
   D12        1.04748  -0.00421   0.00000  -0.00343  -0.00347   1.04401
   D13       -0.00099   0.00132   0.00000   0.00149   0.00149   0.00050
   D14        3.14093   0.00372   0.00000   0.00418   0.00419  -3.13807
   D15       -3.14120  -0.00408   0.00000  -0.00462  -0.00467   3.13731
   D16        0.00072  -0.00168   0.00000  -0.00193  -0.00196  -0.00125
   D17       -2.09446   0.06540   0.00000   0.05996   0.05955  -2.03491
   D18        2.09433  -0.05976   0.00000  -0.05325  -0.05287   2.04146
   D19        1.04575   0.07080   0.00000   0.06607   0.06569   1.11144
   D20       -1.04865  -0.05436   0.00000  -0.04714  -0.04673  -1.09538
   D21        0.00060  -0.00162   0.00000  -0.00184  -0.00185  -0.00126
   D22       -3.14153   0.00027   0.00000   0.00030   0.00030  -3.14123
   D23       -3.14132  -0.00402   0.00000  -0.00453  -0.00455   3.13732
   D24       -0.00026  -0.00212   0.00000  -0.00239  -0.00239  -0.00266
   D25        0.00023   0.00015   0.00000   0.00017   0.00018   0.00041
   D26       -3.14158   0.00157   0.00000   0.00177   0.00178  -3.13980
   D27       -3.14083  -0.00175   0.00000  -0.00197  -0.00198   3.14038
   D28        0.00054  -0.00033   0.00000  -0.00037  -0.00037   0.00017
   D29       -0.00066   0.00164   0.00000   0.00185   0.00186   0.00120
   D30        3.14138   0.00246   0.00000   0.00278   0.00277  -3.13903
   D31        3.14116   0.00022   0.00000   0.00025   0.00026   3.14142
   D32        0.00001   0.00104   0.00000   0.00117   0.00117   0.00118
   D33        1.44371   0.00131   0.00000   0.00134   0.00139   1.44510
   D34       -2.74508  -0.01245   0.00000  -0.01122  -0.01114  -2.75622
   D35       -0.65068  -0.01637   0.00000  -0.01617  -0.01628  -0.66696
   D36       -0.65068   0.00521   0.00000   0.00194   0.00197  -0.64872
   D37        1.44371  -0.00856   0.00000  -0.01063  -0.01056   1.43315
   D38       -2.74508  -0.01248   0.00000  -0.01558  -0.01570  -2.76078
   D39       -1.32426  -0.01255   0.00000  -0.01097  -0.01097  -1.33523
   D40        0.77013  -0.01652   0.00000  -0.01479  -0.01479   0.75535
   D41        2.86453  -0.01423   0.00000  -0.01285  -0.01287   2.85166
   D42        0.77013   0.01796   0.00000   0.01667   0.01668   0.78681
   D43        2.86453   0.01398   0.00000   0.01285   0.01286   2.87739
   D44       -1.32426   0.01627   0.00000   0.01478   0.01478  -1.30948
   D45        2.81015  -0.03201   0.00000  -0.03056  -0.03028   2.77987
   D46        0.71575   0.02381   0.00000   0.01990   0.01835   0.73411
   D47       -1.37864   0.03490   0.00000   0.03474   0.03571  -1.34293
   D48       -1.37864  -0.00681   0.00000   0.00333   0.00381  -1.37484
   D49        2.81015   0.04901   0.00000   0.05379   0.05244   2.86259
   D50        0.71575   0.06010   0.00000   0.06863   0.06980   0.78555
   D51        1.27984   0.01169   0.00000   0.01852   0.01881   1.29865
   D52       -0.81455   0.01727   0.00000   0.02430   0.02462  -0.78993
   D53       -2.90895   0.04276   0.00000   0.05014   0.05044  -2.85851
   D54       -0.81455  -0.00816   0.00000  -0.01098  -0.01130  -0.82585
   D55       -2.90895  -0.00258   0.00000  -0.00520  -0.00549  -2.91443
   D56        1.27984   0.02291   0.00000   0.02064   0.02033   1.30018
   D57       -1.15004  -0.04491   0.00000  -0.04961  -0.05118  -1.20121
   D58        1.99147  -0.03227   0.00000  -0.03517  -0.03656   1.95491
   D59        0.94436   0.01665   0.00000   0.01110   0.01106   0.95541
   D60       -2.19733   0.02929   0.00000   0.02555   0.02568  -2.17165
   D61        3.03876  -0.03631   0.00000  -0.03691  -0.03556   3.00320
   D62       -0.10293  -0.02367   0.00000  -0.02247  -0.02094  -0.12387
   D63        1.73224   0.01248   0.00000   0.01352   0.01362   1.74587
   D64       -1.40944   0.00806   0.00000   0.00848   0.00857  -1.40088
   D65       -0.36215  -0.00700   0.00000  -0.00570  -0.00568  -0.36783
   D66        2.77935  -0.01141   0.00000  -0.01074  -0.01074   2.76861
   D67       -2.45655   0.00917   0.00000   0.00920   0.00910  -2.44745
   D68        0.68495   0.00475   0.00000   0.00416   0.00404   0.68899
   D69        2.62025  -0.01439   0.00000  -0.01533  -0.01534   2.60491
   D70       -1.56854  -0.00980   0.00000  -0.01063  -0.01060  -1.57914
   D71        0.52585  -0.00887   0.00000  -0.00967  -0.00966   0.51619
   D72       -1.56854   0.00674   0.00000   0.00773   0.00777  -1.56077
   D73        0.52585   0.01133   0.00000   0.01244   0.01251   0.53836
   D74        2.62025   0.01226   0.00000   0.01339   0.01345   2.63370
   D75        0.52585   0.00276   0.00000   0.00338   0.00329   0.52914
   D76        2.62025   0.00735   0.00000   0.00809   0.00803   2.62828
   D77       -1.56854   0.00827   0.00000   0.00904   0.00897  -1.55957
   D78        1.71839   0.00093   0.00000   0.00076   0.00075   1.71915
   D79       -2.47040   0.00140   0.00000   0.00124   0.00124  -2.46915
   D80       -0.37600   0.00033   0.00000   0.00014   0.00014  -0.37586
   D81       -0.37600  -0.00303   0.00000  -0.00317  -0.00318  -0.37918
   D82        1.71839  -0.00256   0.00000  -0.00269  -0.00269   1.71571
   D83       -2.47040  -0.00364   0.00000  -0.00379  -0.00379  -2.47419
   D84       -2.47040  -0.00026   0.00000  -0.00039  -0.00039  -2.47079
   D85       -0.37600   0.00021   0.00000   0.00009   0.00010  -0.37590
   D86        1.71839  -0.00086   0.00000  -0.00101  -0.00101   1.71739
   D87       -3.14112  -0.00253   0.00000  -0.00288  -0.00290   3.13917
   D88       -0.00091  -0.00154   0.00000  -0.00178  -0.00179  -0.00270
   D89        0.00056   0.00188   0.00000   0.00216   0.00215   0.00272
   D90        3.14078   0.00288   0.00000   0.00326   0.00326  -3.13915
   D91       -3.14124   0.00259   0.00000   0.00296   0.00293  -3.13831
   D92       -0.00010   0.00255   0.00000   0.00292   0.00289   0.00280
   D93        0.00026  -0.00182   0.00000  -0.00208  -0.00208  -0.00182
   D94        3.14140  -0.00186   0.00000  -0.00213  -0.00211   3.13929
   D95       -0.00099  -0.00067   0.00000  -0.00077  -0.00078  -0.00177
   D96        3.14093  -0.00014   0.00000  -0.00017  -0.00017   3.14076
   D97       -3.14120  -0.00167   0.00000  -0.00188  -0.00189   3.14009
   D98        0.00072  -0.00113   0.00000  -0.00127  -0.00128  -0.00056
   D99       -0.00066   0.00054   0.00000   0.00062   0.00062  -0.00004
   D100       3.14116   0.00021   0.00000   0.00025   0.00025   3.14141
   D101       3.14138   0.00058   0.00000   0.00067   0.00066  -3.14114
   D102       0.00001   0.00025   0.00000   0.00029   0.00029   0.00030
   D103       0.00060  -0.00061   0.00000  -0.00069  -0.00069  -0.00009
   D104      -3.14153   0.00033   0.00000   0.00038   0.00038  -3.14115
   D105      -3.14132  -0.00114   0.00000  -0.00130  -0.00130   3.14056
   D106      -0.00026  -0.00020   0.00000  -0.00023  -0.00023  -0.00050
   D107       0.00023   0.00067   0.00000   0.00076   0.00076   0.00099
   D108      -3.14083  -0.00027   0.00000  -0.00030  -0.00030  -3.14113
   D109      -3.14158   0.00100   0.00000   0.00114   0.00114  -3.14045
[...]
 5,-0.00000079,-0.00000196,-0.00000023,-0.00000344,-0.00000379,-0.00000
 417,-0.00000251,-0.00001355,0.00000146,0.00000721,-0.00000081,0.000006
 24,-0.00000754,-0.00000530,0.00001555,-0.00000116,0.00000693,-0.000000
 74,0.00000277,-0.00000162,0.00000082,-0.00001923,0.00000883,-0.0000187
 3,-0.00000606,0.00000946,-0.00000629,0.00000925,0.00000117,0.00000070,
 -0.00000157,-0.00000091,0.00000173,-0.00000007,-0.00001093,0.00001135,
 -0.00000491,0.00000182,0.00000948,0.01789865,-0.01947057,-0.02006201,-
 0.04185838,-0.01899515,-0.00629145,0.01001906,0.02706868,0.02551732,0.
 02436117,-0.13260831,-0.15111492,-0.00129755,-0.00298052,0.00512098,0.
 02762079,-0.05186538,-0.09634349,-0.00247812,-0.00423169,0.00429481,0.
 02356813,0.26484402,0.31384363,-0.00000708,0.00003407,0.00003474,0.000
 16220,-0.00025330,-0.00008181,-0.00003886,0.00003797,-0.00002599,-0.00
 001124,-0.00001369,-0.00000637,-0.00000185,0.00003169,-0.00000507,0.00
 000549,-0.00003306,-0.00000388,0.00000365,-0.00000671,0.00001525,0.000
 00333,0.00001290,0.00000286,-0.00000196,0.00000704,0.00000360,-0.00000
 723,0.00000289,0.00000372,-0.00009440,0.00000496,-0.00001592,-0.000326
 32,0.00011578,-0.00040318,-0.00027624,0.00082358,0.00116078,-0.0000024
 7,-0.00004303,-0.00004983,-0.00031258,-0.00017915,-0.00015132,0.000040
 52,-0.00000487,-0.00004205,-0.00001776,0.00000987,0.00000420,-0.000003
 74,-0.00000542,0.00000315,-0.00010200,0.00009417,0.00016376,0.00005036
 ,-0.00000614,0.00000668,0.00000359,0.00000073,-0.00003859,0.00002114,0
 .00003752,0.00003912,-0.00002106,-0.00000530,-0.00000463,0.00001594,-0
 .00000066,0.00001290,0.00002106,0.00000765,-0.00001336,-0.00000143,-0.
 00000663,-0.00003978,-0.00002587,0.00001144,0.00001772,0.00000158,-0.0
 0000528,0.00000236,0.00001537,-0.00000896,-0.00000291,-0.00000443,-0.0
 0000037,0.00000373,-0.00000864,-0.00000644,-0.00000645,-0.00000435,0.0
 0001539,0.00000109,-0.00000086,-0.00000040,0.00000653,0.00000388,-0.00
 000333,0.00000482,-0.00000514,-0.00001934,0.00000836,-0.00000074,-0.00
 000139,0.00000048,-0.00000054,0.00000242,-0.00000193,-0.00001761,0.000
 00153,-0.00000258,0.00000726,0.00002138,-0.00000678,-0.00000131,-0.000
 00362,-0.00000141,-0.00000056,0.00000375,0.00000132,0.00000387,0.00000
 283,-0.00000507,0.00000205,0.00000353,0.00000215,-0.00222144,-0.003552
 51,-0.00277325,-0.01923785,0.01234328,0.00810581,0.00025210,-0.0006755
 0,-0.00043683,-0.27973487,0.09495161,0.06143399,0.00114517,-0.00019038
 ,-0.00004797,0.00160387,0.00005300,-0.00006171,-0.00004025,0.00009750,
 0.00008682,0.00237138,-0.00117194,-0.00078846,0.29595627,-0.00001239,-
 0.00000853,0.00003341,0.00003941,-0.00009008,-0.00002557,0.00003286,0.
 00000247,0.00001520,-0.00000305,0.00001679,0.00000527,0.00000679,0.000
 00698,-0.00000375,-0.00000326,-0.00001221,0.00000658,-0.00000075,0.000
 00077,-0.00000787,-0.00000091,-0.00000178,-0.00000265,-0.00000088,-0.0
 0000018,-0.00000212,-0.00000160,-0.00000016,-0.00000182,-0.00001182,0.
 00001573,-0.00000440,-0.00010767,0.00002649,-0.00006875,-0.00036906,0.
 00046723,0.00033666,0.00001750,-0.00001584,-0.00000842,-0.00010009,-0.
 00006340,0.00001534,-0.00000353,0.00000243,-0.00001015,-0.00000018,-0.
 00000103,0.00000287,-0.00000021,0.00000088,0.00000141,0.00008928,0.000
 04139,-0.00002463,-0.00004164,-0.00000045,-0.00004602,0.00000270,-0.00
 000767,-0.00000418,0.00000052,-0.00000138,-0.00000155,0.00000028,-0.00
 000185,0.00000166,0.00000109,0.00000075,0.00000189,-0.00001027,0.00001
 688,-0.00001702,-0.00000019,0.00000152,0.00000393,-0.00000436,-0.00002
 159,0.00000648,0.00000255,-0.00000691,0.00000584,0.00000078,-0.0000009
 7,-0.00000073,-0.00000098,-0.00000040,0.00000016,-0.00000075,0.0000007
 2,0.00000041,0.00000080,0.00000199,0.00000002,-0.00000126,-0.00000251,
 -0.00000416,0.00000003,0.00000194,0.00000008,0.00000318,-0.00000369,-0
 .00000069,-0.00000061,0.00000330,0.00000007,0.00000104,-0.00000117,0.0
 0000082,0.00000024,0.00000404,-0.00000291,-0.00000277,0.00000182,-0.00
 000201,0.00000431,0.00000279,0.00000294,-0.00000017,-0.00000141,0.0000
 0020,-0.00000068,-0.00000374,0.00000463,-0.00000204,-0.00000035,0.0000
 0204,-0.00252236,0.00131045,-0.00425169,-0.01372098,0.00887195,0.00436
 673,-0.00068418,-0.00068775,-0.00020885,0.09484911,-0.09344999,-0.0382
 4031,0.00037968,-0.00053403,0.00229169,-0.00117245,-0.00160640,-0.0059
 9924,0.00010454,-0.00030013,0.00067746,0.02496137,-0.00563185,-0.00512
 075,-0.10269302,0.09234892,-0.00001456,-0.00002621,-0.00001320,-0.0000
 1377,0.00003885,0.00001439,-0.00003732,0.00001450,-0.00001883,0.000016
 20,-0.00001068,-0.00000978,-0.00001386,-0.00000081,0.00001367,0.000006
 35,0.00001910,0.00000115,0.00000179,0.00000140,-0.00000015,-0.00000119
 ,0.00000269,-0.00000123,-0.00000017,-0.00000082,-0.00000091,0.00000125
 ,-0.00000026,-0.00000008,0.00000223,0.00002477,-0.00000975,0.00008027,
 0.00000729,-0.00001411,-0.00050203,0.00004476,0.00034962,0.00003087,0.
 00002766,-0.00000077,-0.00017165,-0.00009762,-0.00011713,-0.00000397,-
 0.00000118,0.00000579,0.00000101,-0.00000051,-0.00000051,0.00000128,0.
 00000146,-0.00000012,-0.00014104,-0.00003070,0.00007232,0.00007586,0.0
 0002091,0.00003830,0.00001053,0.00000532,-0.00000257,0.00000486,-0.000
 00684,0.00000207,0.00000234,0.00000254,0.00000111,-0.00000036,0.000000
 99,-0.00000231,0.00001544,0.00000536,-0.00000159,-0.00000545,-0.000002
 43,-0.00001480,-0.00000863,0.00000058,0.00001025,0.00001123,0.00000479
 ,0.00000184,0.00000220,-0.00000118,0.00000002,0.00000146,0.00000027,-0
 .00000161,-0.00000194,0.00000040,-0.00000022,-0.00000106,0.00000066,0.
 00000199,-0.00000120,0.00000218,-0.00000160,-0.00000127,0.00000069,-0.
 00000294,0.00000608,-0.00000066,-0.00000593,0.00000067,0.00000162,0.00
 000073,-0.00000100,-0.00000032,0.00000034,0.00000896,-0.00000020,0.000
 00214,0.00000049,-0.00000326,0.00000061,-0.00000004,0.00000453,0.00000
 087,-0.00000071,-0.00000057,0.00000042,-0.00000186,-0.00000201,0.00000
 095,-0.00000056,-0.00000162,0.00000026,-0.00148674,-0.00415419,0.00432
 630,-0.00999123,0.00473467,0.00525059,-0.00038108,-0.00021264,-0.00050
 734,0.06140857,-0.03800065,-0.06046093,0.00032722,0.00222001,-0.002353
 17,-0.00088918,-0.00596811,0.00295781,0.00008288,0.00071010,-0.0008059
 8,0.01714199,-0.00567870,-0.00120948,-0.06628771,0.04433200,0.05471697
 ,-0.00001903,-0.00002040,0.00003720,0.00012614,-0.00016384,-0.00004189
 ,-0.00000346,0.00003320,-0.00001390,0.00001448,0.00001243,-0.00000139,
 -0.00001009,0.00003563,0.00001488,-0.00000273,-0.00000403,0.00002179,-
 0.00000197,-0.00000548,0.00000027,-0.00000177,0.00000718,-0.00000838,-
 0.00000723,0.00000442,-0.00000532,-0.00000907,0.00000024,-0.00000343,-
 0.00002679,0.00003269,0.00000817,-0.00012338,0.00019429,-0.00012461,0.
 00075878,-0.00114654,-0.00034934,-0.00034810,-0.00025706,-0.00014877,0
 .00002187,0.00003588,0.00001423,0.00000678,-0.00000220,-0.00003475,-0.
 00000451,0.00000196,0.00000722,0.00000189,0.00000351,0.00000612,-0.000
 04263,0.00003490,0.00004881,0.00001335,-0.00000531,-0.00000147,0.00000
 223,0.00000213,-0.00001763,0.00000271,-0.00001338,-0.00000540,-0.00000
 199,0.00000398,0.00000293,0.00000720,-0.00000013,0.00000639,0.00001684
 ,-0.00000196,-0.00000239,-0.00000304,0.00000353,-0.00001034,-0.0000138
 9,0.00000738,0.00000116,0.00000122,-0.00000225,0.00000419,0.00001473,-
 0.00000326,0.00000314,-0.00000599,-0.00000113,0.00000144,-0.00000316,0
 .00000217,-0.00000026,-0.00000322,0.00000762,-0.00000253,-0.00000615,-
 0.00000515,-0.00001403,-0.00000228,0.00000982,-0.00000143,0.00001383,-
 0.00002071,-0.00001699,-0.00000415,0.00001749,0.00000002,0.00000022,-0
 .00000332,0.00000190,0.00001986,0.00000661,-0.00000040,-0.00000184,0.0
 0000682,-0.00000147,0.00001355,0.00001684,0.00001105,-0.00000401,-0.00
 000274,0.00000329,-0.00000387,-0.00001365,0.00000758,-0.00000610,-0.00
 000366,0.00001013,-0.00446273,-0.00151828,-0.00138219,-0.00126901,-0.0
 0012564,-0.00006414,0.00596835,-0.02299323,-0.01623883,-0.00504283,0.0
 0129090,0.00078998,0.00024279,-0.00000391,0.00001193,-0.06127886,0.013
 80655,0.00972307,0.00114892,0.00037921,0.00029030,0.00314348,0.0244219
 0,0.01716094,0.00001118,0.00134994,0.00089887,0.05998153,-0.00000142,0
 .00003756,0.00001662,0.00013486,-0.00017551,-0.00002568,-0.00002553,0.
 00004835,-0.00002988,-0.00000333,-0.00001404,-0.00000415,-0.00001283,0
 .00003251,0.00000405,0.00000071,-0.00001657,0.00000412,-0.00000037,-0.
 00000996,0.00001509,0.00000274,0.00000949,-0.00000138,-0.00000497,0.00
 000733,0.00000071,-0.00001190,0.00000252,0.00000020,-0.00005727,-0.000
 00476,0.00002464,-0.00016561,0.00015265,-0.00017024,0.00071115,-0.0003
 8594,-0.00001426,-0.00016094,-0.00015931,-0.00003508,-0.00002698,0.000
 00404,-0.00001504,0.00003087,-0.00000690,-0.00005998,-0.00001070,0.000
 00727,0.00001020,-0.00000089,-0.00000045,0.00000900,-0.00006161,0.0000
 5589,0.00007557,0.00002828,-0.00001915,0.00003184,-0.00000570,0.000004
 01,-0.00002457,0.00000436,0.00000656,0.00001322,-0.00001082,0.00000112
 ,-0.00000255,0.00001183,-0.00000052,0.00001100,0.00002047,-0.00000702,
 0.00000906,0.00000111,0.00000113,-0.00001124,-0.00000744,0.00002102,-0
 .00000079,-0.00000939,-0.00000427,-0.00000066,0.00001686,-0.00000351,0
 .00000020,-0.00000795,-0.00000191,0.00000449,-0.00000347,-0.00000108,-
 0.00000154,-0.00000476,0.00000980,-0.00000366,-0.00000245,-0.00000972,
 -0.00000124,0.00000528,0.00000285,0.00001016,0.00001017,-0.00002760,-0
 .00000806,-0.00000618,0.00001467,-0.00000069,0.00000431,-0.00000187,0.
 00000203,-0.00000990,0.00002402,-0.00001731,-0.00000060,0.00001645,-0.
 00000630,0.00001494,0.00000705,0.00000214,-0.00000202,-0.00000103,0.00
 000198,-0.00000185,-0.00002910,0.00001182,-0.00000979,0.00000318,0.000
 01783,-0.00275075,0.00277000,-0.00346656,-0.00022829,0.00031378,0.0004
 0593,0.00285152,-0.00794688,-0.00738560,0.00245378,0.00297213,-0.00278
 992,-0.00002079,-0.00048900,0.00056626,0.01364897,-0.23795086,-0.14173
 196,-0.00011057,-0.00067754,0.00231748,-0.00133612,-0.00606010,-0.0060
 1264,-0.00009805,-0.00031184,-0.00045369,-0.01492425,0.24845018,-0.000
 02311,-0.00001805,0.00004488,0.00015223,-0.00025024,-0.00009035,0.0000
 1734,0.00001147,0.00001264,-0.00000101,0.00001492,0.00002150,0.0000037
 2,0.00004468,0.00001176,0.00000233,-0.00002188,0.00001331,0.00000173,-
 0.00002293,-0.00001922,-0.00000991,0.00002483,-0.00002523,-0.00001053,
 0.00000457,-0.00000470,-0.00000329,0.00000197,-0.00000222,-0.00002941,
 0.00005192,-0.00001713,-0.00026651,0.00016435,-0.00019003,0.00047505,-
 0.00049356,0.00012664,-0.00023128,-0.00007928,-0.00016796,0.00002177,0
 .00000162,-0.00001927,0.00001285,-0.00000038,-0.00000683,-0.00000872,0
 .00000330,0.00000012,0.00000164,0.00000075,-0.00000147,0.00001652,0.00
 004216,0.00003880,-0.00001371,-0.00001299,-0.00001329,-0.00000262,0.00
 000044,-0.00002645,0.00001385,-0.00000579,-0.00000452,-0.00000713,0.00
 000352,0.00000396,0.00000792,-0.00000311,0.00000772,0.00000582,-0.0000
 0914,-0.00000566,0.00000093,0.00000088,-0.00001020,-0.00001222,0.00001
 952,-0.00000583,-0.00000425,-0.00000051,-0.00000032,0.00001273,-0.0000
 0308,0.00000371,-0.00000282,-0.00000018,0.00000124,-0.00000291,0.00000
 061,-0.00000240,-0.00000499,0.00000743,-0.00000139,-0.00000287,0.00000
 431,-0.00000108,-0.00000091,0.00000282,-0.00000454,0.00000075,-0.00001
 396,-0.00000400,0.00000213,0.00000194,0.00000079,-0.00000558,0.0000001
 4,-0.00000154,0.00000572,-0.00000605,0.00000805,0.00000521,0.00000889,
 0.00000191,-0.00000217,0.00000373,0.00000120,-0.00000378,0.00000209,0.
 00000350,0.00000052,0.00000745,-0.00000755,0.00000321,-0.00000165,-0.0
 0000106,-0.00203963,-0.00307291,0.00528381,-0.00001136,0.00052572,0.00
 009910,0.00187165,-0.00769676,-0.00281705,0.00155092,-0.00289946,0.004
 91031,0.00003010,0.00051443,-0.00091636,0.00996738,-0.14178840,-0.1356
 7061,-0.00003436,0.00234113,-0.00233517,-0.00121010,-0.00562984,-0.001
 47437,-0.00007868,-0.00047040,0.00003556,-0.01030377,0.15646408,0.1354
 9289,0.00002164,0.00004024,-0.00001081,0.00005093,-0.00007293,-0.00003
 408,-0.00003063,-0.00000251,-0.00001760,-0.00001304,-0.00002192,0.0000
 0262,0.00000481,0.00001310,-0.00000222,0.00000454,-0.00002818,-0.00001
 086,0.00000258,-0.00000895,0.00001285,0.00000153,0.00001166,-0.0000030
 1,-0.00000434,0.00000652,0.00000244,-0.00000419,0.00000184,0.00000300,
 -0.00004073,-0.00001409,0.,-0.00009038,0.00005245,-0.00008357,0.000177
 44,-0.00007515,0.00009673,-0.00003505,-0.00006043,-0.00005258,0.000024
 31,0.00002494,-0.00000984,0.00003222,-0.00000470,-0.00002123,-0.000011
 06,0.00000685,0.00000053,-0.00000255,-0.00000412,0.00000137,-0.0000157
 4,0.00003730,0.00004509,0.00000302,-0.00001312,0.00001152,-0.00000607,
 0.00000079,-0.00001712,0.00000949,0.00002176,0.00002362,-0.00001321,-0
 .00000250,-0.00000503,0.00000709,-0.00000119,0.00000619,0.00000999,-0.
 00000408,0.00000170,0.00000249,-0.00000203,-0.00001038,-0.00000705,0.0
 0001402,-0.00000279,-0.00000581,-0.00000274,-0.00000085,0.00000711,-0.
 00000366,-0.00000189,-0.00000255,-0.00000015,0.00000284,-0.00000305,-0
 .00000399,-0.00000341,-0.00000284,0.00000676,-0.00000025,0.00000671,-0
 .00000345,0.00001464,0.00000457,-0.00000395,0.00000507,-0.00001327,-0.
 00001173,0.00001198,-0.00000036,0.00000029,-0.00000079,-0.00000110,0.0
 0000221,-0.00000151,-0.00002216,-0.00000009,-0.00000666,0.00000816,0.0
 0002040,-0.00000197,-0.00000163,-0.00000823,-0.00001004,-0.00000273,0.
 00000393,0.00000164,0.00000307,-0.00000034,-0.00000788,0.00000011,0.00
 000327,0.00000633,0.00003551,0.00071414,0.00049025,0.00133807,0.000685
 59,0.00039245,-0.00321434,0.00345305,0.00233142,0.00529527,0.00247093,
 0.00173735,0.00014224,0.00017278,0.00011235,-0.01870249,-0.01477609,-0
 .01055716,-0.00106354,-0.00080058,-0.00053831,-0.25545074,-0.10353754,
 -0.07440355,0.00082942,-0.00037390,-0.00018131,0.00118195,0.00014327,0
 .00014360,0.26955640,0.00001708,-0.00000364,0.00001004,0.00003096,-0.0
 0005142,-0.00001197,-0.00001062,0.00002054,-0.00000247,0.00000207,-0.0
 0000701,-0.00001017,-0.00000939,-0.00000275,-0.00000070,-0.00000346,0.
 00001146,0.00000295,-0.00000003,-0.00000128,0.00000859,0.00000262,0.00
 000016,0.00000377,0.00000008,0.00000195,0.00000193,-0.00000291,0.00000
 123,0.00000127,-0.00003041,0.00000310,-0.00000153,0.00004445,0.0000580
 7,0.00001615,0.00004971,-0.00020473,0.00068746,0.00002959,0.00000373,-
 0.00001923,-0.00012563,0.00002172,-0.00000259,0.00001074,-0.00000137,-
 0.00001780,-0.00000463,0.00000276,0.00000269,-0.00000044,-0.00000120,0
 .00000195,0.00003991,0.00001589,-0.00001919,-0.00001012,-0.00003021,0.
 00001328,-0.00001306,0.00000132,-0.00000527,0.00000642,0.00000437,0.00
 000712,-0.00000579,0.00000025,-0.00000137,0.00000313,-0.00000124,0.000
 00441,0.00000653,-0.00002776,0.00001993,-0.00000281,0.00000578,-0.0000
 1250,-0.00000658,0.00003959,-0.00000768,-0.00001450,0.00000058,-0.0000
 0965,0.00000681,-0.00000183,0.00000054,-0.00000342,-0.00000028,0.00000
 228,-0.00000123,-0.00000072,-0.00000142,-0.00000241,0.00000343,-0.0000
 0202,-0.00000314,-0.00000052,-0.00000040,0.00000146,-0.00000056,0.0000
 0251,0.00000244,-0.00000793,0.00000081,-0.00000052,-0.00000070,0.00000
 090,0.00000114,0.00000030,-0.00000010,-0.00000588,0.00000472,-0.000002
 34,0.00000067,0.00000385,-0.00000311,0.00000070,-0.00000012,0.00000148
 ,0.00000078,0.00000060,-0.00000006,0.00000094,-0.00000165,0.00000040,-
 0.00000003,0.00000226,0.00000073,0.00058648,-0.00075276,-0.00003864,0.
 00188651,-0.00123058,-0.00586456,0.00234098,0.00174003,-0.00376190,-0.
 02361977,-0.00744968,-0.00703056,-0.00122312,-0.00046846,-0.00054185,0
 .01118401,0.00884371,0.00470564,0.00058079,0.00041357,0.00009274,-0.10
 344366,-0.10720265,-0.05107886,0.00026001,-0.00037896,0.00242573,-0.00
 048769,-0.00065911,0.00222488,0.11193423,0.10728415,-0.00002529,0.0000
 2640,0.00000807,0.00004668,-0.00006839,-0.00002888,-0.00000591,0.00000
 893,-0.00001462,-0.00000568,-0.00000316,0.00001157,0.00000478,0.000023
 72,-0.00000053,0.00000322,-0.00002102,-0.00000207,-0.00000075,-0.00000
 949,-0.00000213,-0.00000184,0.00000781,-0.00000192,-0.00000104,0.00000
 115,0.00000050,-0.00000093,0.00000027,0.00000012,-0.00000747,-0.000005
 14,0.00000278,-0.00020020,0.00001580,-0.00011559,-0.00010143,0.0004614
 6,-0.00068462,0.00002800,0.00007505,0.00005174,0.00005785,-0.00003898,
 -0.00001372,0.00000682,-0.00000233,0.00000034,-0.00000325,0.00000239,-
 0.00000147,0.00000024,-0.00000074,-0.00000108,-0.00002125,0.00000881,0
 .00003841,0.00000842,-0.00000331,0.00001805,-0.00001064,0.00000406,-0.
 00001024,0.00000314,0.00000406,0.00000245,-0.00000370,0.00000102,0.000
 00038,0.00000585,-0.00000076,0.00000148,0.00000287,-0.00001371,0.00001
 553,0.00000191,-0.00000224,-0.00000518,0.00000477,0.00001949,0.0000042
 4,-0.00000510,0.00000500,-0.00000949,0.00000383,-0.00000065,0.00000087
 ,0.00000016,0.00000016,0.00000039,-0.00000064,-0.00000091,-0.00000132,
 -0.00000082,0.00000271,-0.00000022,-0.00000097,0.00000290,-0.00000013,
 -0.00000091,0.00000119,-0.00000005,0.00000003,-0.00000158,-0.00000303,
 -0.00000032,-0.00000102,-0.00000079,-0.00000188,0.00000088,-0.00000100
 ,0.00000364,-0.00000384,0.00000626,0.00000276,0.00000105,0.00000145,-0
 .00000225,-0.00000070,0.00000006,-0.00000035,0.00000143,0.00000057,0.0
 0000059,0.00000434,-0.00000435,0.00000225,-0.00000070,-0.00000192,0.00
 059962,0.00006894,-0.00065552,0.00111840,-0.00593902,0.00324475,0.0015
 1771,-0.00375401,0.00460076,-0.01630696,-0.00646691,-0.00246568,-0.000
 86359,-0.00052950,-0.00003316,0.00763703,0.00431717,0.00539526,0.00044
 559,0.00009499,0.00030599,-0.07443770,-0.05116063,-0.07188799,0.000257
 53,0.00241481,-0.00224907,-0.00029196,0.00224496,-0.00227558,0.0805391
 1,0.05820779,0.06675934\\-0.00000667,-0.00001100,0.00000500,0.00000483
 ,-0.00001102,0.00000382,0.00000215,0.00000349,-0.00000533,0.00000035,-
 0.00000651,0.00000359,-0.00000209,0.00000056,-0.00000048,-0.00001487,-
 0.00000026,0.00000445,0.00000014,0.00000035,-0.00000333,-0.00000267,0.
 00000059,-0.00000107,0.00000189,-0.00000086,0.00000121,0.00000510,-0.0
 0000185,-0.00000003,0.00000877,0.00001310,-0.00000162,0.00000033,0.000
 01137,0.00000191,0.00000120,0.00000791,-0.00000040,-0.00000415,-0.0000
 0577,0.00000534,0.00000424,-0.00000531,-0.00000335,0.00000759,0.000001
 14,0.00000185,-0.00000268,0.00000619,-0.00000329,0.00000038,-0.0000019
 8,-0.00000069,0.00000056,0.00000070,0.00001042,0.00000437,0.00000454,0
 .00000063,-0.00000219,0.00000440,0.00000003,-0.00000715,-0.00000281,-0
 .00001986,0.00000356,-0.00000109,0.00000329,-0.00000014,-0.00000018,0.
 00000627,0.00000213,0.00000942,-0.00000462,0.00000154,-0.00000155,-0.0
 0000463,0.00000302,-0.00000219,0.00000140,-0.00000220,-0.00000460,-0.0
 0000231,0.00000037,0.00000483,-0.00000515,-0.00000250,-0.00000295,0.00
 000124,-0.00000012,-0.00000652,-0.00000058,0.00000449,-0.00000056,-0.0
 0000003,0.00000428,-0.00001921,-0.00000281,0.00000009,0.00001240,0.000
 01601,-0.00000619,0.00000416,-0.00000590,-0.00000914,0.00000026,-0.000
 00877,-0.00000247,-0.00000279,0.00000056,0.00000318,0.00000435,0.00000
 907,-0.00000101,0.00000002,0.00000251,0.00000661,-0.00001007,-0.000000
 54,0.00000088,-0.00000207,0.00000030,-0.00000118,-0.00000084,-0.000000
 61,-0.00000090,-0.00000202,-0.00000026,-0.00000452,0.00000798,0.000001
 98,0.00000041,0.00000150,0.00000010,-0.00000051,-0.00000279,-0.0000056
 8,0.00000024,-0.00000307,-0.00000014,0.00000074,0.00000040,-0.00000329
 ,0.00000143,0.00000487,0.00000071,0.00000044,0.00000020,0.00000105,0.0
 0000105,0.00000270,0.00000295,-0.00000067,0.00000258,-0.00000082,-0.00
 000101,-0.00000145,0.00000055,-0.00000131,0.00000129,-0.00000067\\\@
 The archive entry for this job was punched.


 Democracy is the recurrent suspicion that more than half of the people
 are right more than half of the time.
 -- E. B. White
 Job cpu time:       0 days  7 hours 55 minutes 31.5 seconds.
 Elapsed time:       0 days  0 hours 59 minutes 28.4 seconds.
 File lengths (MBytes):  RWF=   1473 Int=      0 D2E=      0 Chk=     31 Scr=      1
 Normal termination of Gaussian 16 at Sat Oct 23 10:29:56 2021.
