 Entering Gaussian System, Link 0=/home/rong/g16/g16
 Input=/home/rong/g16/111821/Y7HPDB.gjf
 Output=/home/rong/g16/111821/Y7HPDB.log
 Initial command:
 /home/rong/g16/l1.exe "/tmp/Gau-212245.inp" -scrdir="/tmp/"
 Default is to use a total of   8 processors:
                                8 via shared-memory
                                1 via Linda
 Entering Link 1 = /home/rong/g16/l1.exe PID=    212248.
  
 Copyright (c) 1988-2019, Gaussian, Inc.  All Rights Reserved.
  
 This is part of the Gaussian(R) 16 program.  It is based on
 the Gaussian(R) 09 system (copyright 2009, Gaussian, Inc.),
 the Gaussian(R) 03 system (copyright 2003, Gaussian, Inc.),
 the Gaussian(R) 98 system (copyright 1998, Gaussian, Inc.),
 the Gaussian(R) 94 system (copyright 1995, Gaussian, Inc.),
 the Gaussian 92(TM) system (copyright 1992, Gaussian, Inc.),
 the Gaussian 90(TM) system (copyright 1990, Gaussian, Inc.),
 the Gaussian 88(TM) system (copyright 1988, Gaussian, Inc.),
 the Gaussian 86(TM) system (copyright 1986, Carnegie Mellon
 University), and the Gaussian 82(TM) system (copyright 1983,
 Carnegie Mellon University). Gaussian is a federally registered
 trademark of Gaussian, Inc.
  
 This software contains proprietary and confidential information,
 including trade secrets, belonging to Gaussian, Inc.
  
 This software is provided under written license and may be
 used, copied, transmitted, or stored only in accord with that
 written license.
  
 The following legend is applicable only to US Government
 contracts under FAR:
  
                    RESTRICTED RIGHTS LEGEND
  
 Use, reproduction and disclosure by the US Government is
 subject to restrictions as set forth in subparagraphs (a)
 and (c) of the Commercial Computer Software - Restricted
 Rights clause in FAR 52.227-19.
  
 Gaussian, Inc.
 340 Quinnipiac St., Bldg. 40, Wallingford CT 06492
  
  
 ---------------------------------------------------------------
 Warning -- This program may not be used in any manner that
 competes with the business of Gaussian, Inc. or will provide
 assistance to any competitor of Gaussian, Inc.  The licensee
 of this program is prohibited from giving any competitor of
 Gaussian, Inc. access to this program.  By using this program,
 the user acknowledges that Gaussian, Inc. is engaged in the
 business of creating and licensing software in the field of
 computational chemistry and represents and warrants to the
 licensee that it is not a competitor of Gaussian, Inc. and that
 it will not use this program in any manner prohibited above.
 ---------------------------------------------------------------
  

 Cite this work as:
 Gaussian 16, Revision C.01,
 M. J. Frisch, G. W. Trucks, H. B. Schlegel, G. E. Scuseria, 
 M. A. Robb, J. R. Cheeseman, G. Scalmani, V. Barone, 
 G. A. Petersson, H. Nakatsuji, X. Li, M. Caricato, A. V. Marenich, 
 J. Bloino, B. G. Janesko, R. Gomperts, B. Mennucci, H. P. Hratchian, 
 J. V. Ortiz, A. F. Izmaylov, J. L. Sonnenberg, D. Williams-Young, 
 F. Ding, F. Lipparini, F. Egidi, J. Goings, B. Peng, A. Petrone, 
 T. Henderson, D. Ranasinghe, V. G. Zakrzewski, J. Gao, N. Rega, 
 G. Zheng, W. Liang, M. Hada, M. Ehara, K. Toyota, R. Fukuda, 
 J. Hasegawa, M. Ishida, T. Nakajima, Y. Honda, O. Kitao, H. Nakai, 
 T. Vreven, K. Throssell, J. A. Montgomery, Jr., J. E. Peralta, 
 F. Ogliaro, M. J. Bearpark, J. J. Heyd, E. N. Brothers, K. N. Kudin, 
 V. N. Staroverov, T. A. Keith, R. Kobayashi, J. Normand, 
 K. Raghavachari, A. P. Rendell, J. C. Burant, S. S. Iyengar, 
 J. Tomasi, M. Cossi, J. M. Millam, M. Klene, C. Adamo, R. Cammi, 
 J. W. Ochterski, R. L. Martin, K. Morokuma, O. Farkas, 
 J. B. Foresman, and D. J. Fox, Gaussian, Inc., Wallingford CT, 2019.
 
 ******************************************
 Gaussian 16:  ES64L-G16RevC.01  3-Jul-2019
                18-Nov-2021 
 ******************************************
 %mem=15GB
 %chk=Y7HPDB.chk
 %nprocshared=8
 Will use up to    8 processors via shared memory.
 ----------------------------------------------------
 # opt freq b3lyp/6-31g(d) scrf=(smd,solvent=toluene)
 ----------------------------------------------------
 1/18=20,19=15,26=3,38=1/1,3;
 2/9=110,12=2,17=6,18=5,40=1/2;
 3/5=1,6=6,7=1,11=2,25=1,30=1,70=32201,71=1,72=13,74=-5/1,2,3;
 4//1;
 5/5=2,38=5,53=13/2;
 6/7=2,8=2,9=2,10=2,28=1/1;
 7//1,2,3,16;
 1/18=20,19=15,26=3/3(2);
 2/9=110/2;
 99//99;
 2/9=110/2;
 3/5=1,6=6,7=1,11=2,25=1,30=1,70=32205,71=1,72=13,74=-5/1,2,3;
 4/5=5,16=3,69=1/1;
 5/5=2,38=5,53=13/2;
 7//1,2,3,16;
 1/18=20,19=15,26=3/3(-5);
 2/9=110/2;
 6/7=2,8=2,9=2,10=2,19=2,28=1/1;
 99/9=1/99;
 ------
 Y7HPDB
 ------
 Symbolic Z-matrix:
 Charge =  0 Multiplicity = 1
 C                     0.887     2.447     0.106 
 C                     0.149     1.273     0.191 
 C                     0.818     0.        0.13 
 C                     2.246     0.       -0.051 
 C                     2.953     1.231    -0.135 
 C                     2.287     2.429    -0.053 
 H                     0.365     3.395     0.201 
 C                     0.15     -1.274     0.19 
 C                     2.954    -1.229    -0.14 
 H                     4.033     1.201    -0.259 
 H                     2.831     3.368    -0.109 
 C                     2.288    -2.428    -0.064 
 C                     0.888    -2.448     0.099 
 H                     4.033    -1.199    -0.266 
 H                     2.832    -3.367    -0.125 
 H                     0.367    -3.396     0.192 
 N                    -1.235     1.349     0.428 
 N                    -1.233    -1.352     0.435 
 C                    -1.975     2.046    -0.34 
 H                    -1.569     2.529    -1.243 
 C                    -1.977    -2.044    -0.334 
 H                    -1.575    -2.519    -1.243 
 C                    -3.433     2.248    -0.069 
 H                    -3.655     3.318     0.048 
 H                    -4.035     1.895    -0.917 
 H                    -3.735     1.716     0.837 
 C                    -3.433    -2.248    -0.058 
 H                    -4.039    -1.885    -0.899 
 H                    -3.655    -3.319     0.049 
 H                    -3.73     -1.726     0.855 
 

 GradGradGradGradGradGradGradGradGradGradGradGradGradGradGradGradGradGrad
 Berny optimization.
 Initialization pass.
                           ----------------------------
                           !    Initial Parameters    !
                           ! (Angstroms and Degrees)  !
 --------------------------                            --------------------------
 ! Name  Definition              Value          Derivative Info.                !
 --------------------------------------------------------------------------------
 ! R1    R(1,2)                  1.3893         estimate D2E/DX2                !
 ! R2    R(1,6)                  1.4091         estimate D2E/DX2                !
 ! R3    R(1,7)                  1.0864         estimate D2E/DX2                !
 ! R4    R(2,3)                  1.4394         estimate D2E/DX2                !
 ! R5    R(2,17)                 1.4062         estimate D2E/DX2                !
 ! R6    R(3,4)                  1.4394         estimate D2E/DX2                !
 ! R7    R(3,8)                  1.4398         estimate D2E/DX2                !
 ! R8    R(4,5)                  1.4221         estimate D2E/DX2                !
 ! R9    R(4,9)                  1.4211         estimate D2E/DX2                !
 ! R10   R(5,6)                  1.3731         estimate D2E/DX2                !
 ! R11   R(5,10)                 1.0875         estimate D2E/DX2                !
 ! R12   R(6,11)                 1.0866         estimate D2E/DX2                !
 ! R13   R(8,13)                 1.3897         estimate D2E/DX2                !
 ! R14   R(8,18)                 1.4067         estimate D2E/DX2                !
 ! R15   R(9,12)                 1.3737         estimate D2E/DX2                !
 ! R16   R(9,14)                 1.0867         estimate D2E/DX2                !
 ! R17   R(12,13)                1.4096         estimate D2E/DX2                !
 ! R18   R(12,15)                1.0869         estimate D2E/DX2                !
 ! R19   R(13,16)                1.0857         estimate D2E/DX2                !
 ! R20   R(17,19)                1.2741         estimate D2E/DX2                !
 ! R21   R(18,21)                1.2743         estimate D2E/DX2                !
 ! R22   R(19,20)                1.1016         estimate D2E/DX2                !
 ! R23   R(19,23)                1.4967         estimate D2E/DX2                !
 ! R24   R(21,22)                1.1016         estimate D2E/DX2                !
 ! R25   R(21,27)                1.4959         estimate D2E/DX2                !
 ! R26   R(23,24)                1.099          estimate D2E/DX2                !
 ! R27   R(23,25)                1.0982         estimate D2E/DX2                !
 ! R28   R(23,26)                1.0932         estimate D2E/DX2                !
 ! R29   R(27,28)                1.0983         estimate D2E/DX2                !
 ! R30   R(27,29)                1.099          estimate D2E/DX2                !
 ! R31   R(27,30)                1.0928         estimate D2E/DX2                !
 ! A1    A(2,1,6)              121.5927         estimate D2E/DX2                !
 ! A2    A(2,1,7)              118.4769         estimate D2E/DX2                !
 ! A3    A(6,1,7)              119.8944         estimate D2E/DX2                !
 ! A4    A(1,2,3)              119.8589         estimate D2E/DX2                !
 ! A5    A(1,2,17)             119.1737         estimate D2E/DX2                !
 ! A6    A(3,2,17)             120.823          estimate D2E/DX2                !
 ! A7    A(2,3,4)              117.8024         estimate D2E/DX2                !
 ! A8    A(2,3,8)              124.4147         estimate D2E/DX2                !
 ! A9    A(4,3,8)              117.7442         estimate D2E/DX2                !
 ! A10   A(3,4,5)              120.0428         estimate D2E/DX2                !
 ! A11   A(3,4,9)              120.1399         estimate D2E/DX2                !
 ! A12   A(5,4,9)              119.8167         estimate D2E/DX2                !
 ! A13   A(4,5,6)              120.7021         estimate D2E/DX2                !
 ! A14   A(4,5,10)             118.4628         estimate D2E/DX2                !
 ! A15   A(6,5,10)             120.8339         estimate D2E/DX2                !
 ! A16   A(1,6,5)              119.9847         estimate D2E/DX2                !
 ! A17   A(1,6,11)             119.4828         estimate D2E/DX2                !
 ! A18   A(5,6,11)             120.5324         estimate D2E/DX2                !
 ! A19   A(3,8,13)             119.8954         estimate D2E/DX2                !
 ! A20   A(3,8,18)             120.8288         estimate D2E/DX2                !
 ! A21   A(13,8,18)            119.1222         estimate D2E/DX2                !
 ! A22   A(4,9,12)             120.653          estimate D2E/DX2                !
 ! A23   A(4,9,14)             118.5568         estimate D2E/DX2                !
 ! A24   A(12,9,14)            120.7899         estimate D2E/DX2                !
 ! A25   A(9,12,13)            120.021          estimate D2E/DX2                !
 ! A26   A(9,12,15)            120.551          estimate D2E/DX2                !
 ! A27   A(13,12,15)           119.4277         estimate D2E/DX2                !
 ! A28   A(8,13,12)            121.5356         estimate D2E/DX2                !
 ! A29   A(8,13,16)            118.5023         estimate D2E/DX2                !
 ! A30   A(12,13,16)           119.9266         estimate D2E/DX2                !
 ! A31   A(2,17,19)            119.975          estimate D2E/DX2                !
 ! A32   A(8,18,21)            119.9361         estimate D2E/DX2                !
 ! A33   A(17,19,20)           121.3269         estimate D2E/DX2                !
 ! A34   A(17,19,23)           122.0394         estimate D2E/DX2                !
 ! A35   A(20,19,23)           116.6334         estimate D2E/DX2                !
 ! A36   A(18,21,22)           121.2699         estimate D2E/DX2                !
 ! A37   A(18,21,27)           122.0732         estimate D2E/DX2                !
 ! A38   A(22,21,27)           116.6561         estimate D2E/DX2                !
 ! A39   A(19,23,24)           110.3317         estimate D2E/DX2                !
 ! A40   A(19,23,25)           110.5361         estimate D2E/DX2                !
 ! A41   A(19,23,26)           110.7016         estimate D2E/DX2                !
 ! A42   A(24,23,25)           106.5236         estimate D2E/DX2                !
 ! A43   A(24,23,26)           109.2544         estimate D2E/DX2                !
 ! A44   A(25,23,26)           109.3951         estimate D2E/DX2                !
 ! A45   A(21,27,28)           110.5294         estimate D2E/DX2                !
 ! A46   A(21,27,29)           110.3332         estimate D2E/DX2                !
 ! A47   A(21,27,30)           110.7032         estimate D2E/DX2                !
 ! A48   A(28,27,29)           106.57           estimate D2E/DX2                !
 ! A49   A(28,27,30)           109.3841         estimate D2E/DX2                !
 ! A50   A(29,27,30)           109.2237         estimate D2E/DX2                !
 ! D1    D(6,1,2,3)              0.6254         estimate D2E/DX2                !
 ! D2    D(6,1,2,17)           176.2939         estimate D2E/DX2                !
 ! D3    D(7,1,2,3)           -177.1886         estimate D2E/DX2                !
 ! D4    D(7,1,2,17)            -1.5202         estimate D2E/DX2                !
 ! D5    D(2,1,6,5)              0.3615         estimate D2E/DX2                !
 ! D6    D(2,1,6,11)          -179.595          estimate D2E/DX2                !
 ! D7    D(7,1,6,5)            178.1451         estimate D2E/DX2                !
 ! D8    D(7,1,6,11)            -1.8113         estimate D2E/DX2                !
 ! D9    D(1,2,3,4)             -1.4382         estimate D2E/DX2                !
 ! D10   D(1,2,3,8)           -179.1177         estimate D2E/DX2                !
 ! D11   D(17,2,3,4)          -177.0339         estimate D2E/DX2                !
 ! D12   D(17,2,3,8)             5.2866         estimate D2E/DX2                !
 ! D13   D(1,2,17,19)           54.9673         estimate D2E/DX2                !
 ! D14   D(3,2,17,19)         -129.4072         estimate D2E/DX2                !
 ! D15   D(2,3,4,5)              1.3216         estimate D2E/DX2                !
 ! D16   D(2,3,4,9)           -178.9718         estimate D2E/DX2                !
 ! D17   D(8,3,4,5)            179.1586         estimate D2E/DX2                !
 ! D18   D(8,3,4,9)             -1.1347         estimate D2E/DX2                !
 ! D19   D(2,3,8,13)           178.8731         estimate D2E/DX2                !
 ! D20   D(2,3,8,18)            -5.6716         estimate D2E/DX2                !
 ! D21   D(4,3,8,13)             1.1924         estimate D2E/DX2                !
 ! D22   D(4,3,8,18)           176.6476         estimate D2E/DX2                !
 ! D23   D(3,4,5,6)             -0.3793         estimate D2E/DX2                !
 ! D24   D(3,4,5,10)           179.2255         estimate D2E/DX2                !
 ! D25   D(9,4,5,6)            179.9131         estimate D2E/DX2                !
 ! D26   D(9,4,5,10)            -0.4821         estimate D2E/DX2                !
 ! D27   D(3,4,9,12)             0.4395         estimate D2E/DX2                !
 ! D28   D(3,4,9,14)          -179.3579         estimate D2E/DX2                !
 ! D29   D(5,4,9,12)          -179.8532         estimate D2E/DX2                !
 ! D30   D(5,4,9,14)             0.3494         estimate D2E/DX2                !
 ! D31   D(4,5,6,1)             -0.4813         estimate D2E/DX2                !
 ! D32   D(4,5,6,11)           179.4747         estimate D2E/DX2                !
 ! D33   D(10,5,6,1)           179.9234         estimate D2E/DX2                !
 ! D34   D(10,5,6,11)           -0.1206         estimate D2E/DX2                !
 ! D35   D(3,8,13,12)           -0.5634         estimate D2E/DX2                !
 ! D36   D(3,8,13,16)          177.2667         estimate D2E/DX2                !
 ! D37   D(18,8,13,12)        -176.0962         estimate D2E/DX2                !
 ! D38   D(18,8,13,16)           1.7339         estimate D2E/DX2                !
 ! D39   D(3,8,18,21)          129.222          estimate D2E/DX2                !
 ! D40   D(13,8,18,21)         -55.2881         estimate D2E/DX2                !
 ! D41   D(4,9,12,13)            0.231          estimate D2E/DX2                !
 ! D42   D(4,9,12,15)         -179.5523         estimate D2E/DX2                !
 ! D43   D(14,9,12,13)        -179.9761         estimate D2E/DX2                !
 ! D44   D(14,9,12,15)           0.2406         estimate D2E/DX2                !
 ! D45   D(9,12,13,8)           -0.1701         estimate D2E/DX2                !
 ! D46   D(9,12,13,16)        -177.9698         estimate D2E/DX2                !
 ! D47   D(15,12,13,8)         179.6156         estimate D2E/DX2                !
 ! D48   D(15,12,13,16)          1.8159         estimate D2E/DX2                !
 ! D49   D(2,17,19,20)           5.1635         estimate D2E/DX2                !
 ! D50   D(2,17,19,23)        -175.0362         estimate D2E/DX2                !
 ! D51   D(8,18,21,22)          -5.224          estimate D2E/DX2                !
 ! D52   D(8,18,21,27)         175.103          estimate D2E/DX2                !
 ! D53   D(17,19,23,24)        120.3342         estimate D2E/DX2                !
 ! D54   D(17,19,23,25)       -122.1046         estimate D2E/DX2                !
 ! D55   D(17,19,23,26)         -0.7284         estimate D2E/DX2                !
 ! D56   D(20,19,23,24)        -59.8567         estimate D2E/DX2                !
 ! D57   D(20,19,23,25)         57.7046         estimate D2E/DX2                !
 ! D58   D(20,19,23,26)        179.0807         estimate D2E/DX2                !
 ! D59   D(18,21,27,28)        121.8325         estimate D2E/DX2                !
 ! D60   D(18,21,27,29)       -120.5525         estimate D2E/DX2                !
 ! D61   D(18,21,27,30)          0.4736         estimate D2E/DX2                !
 ! D62   D(22,21,27,28)        -57.8549         estimate D2E/DX2                !
 ! D63   D(22,21,27,29)         59.7602         estimate D2E/DX2                !
 ! D64   D(22,21,27,30)       -179.2137         estimate D2E/DX2                !
 --------------------------------------------------------------------------------
 Trust Radius=3.00D-01 FncErr=1.00D-07 GrdErr=1.00D-06 EigMax=2.50D+02 EigMin=1.00D-04
 Number of steps in this run=    155 maximum allowed number of steps=    180.
 GradGradGradGradGradGradGradGradGradGradGradGradGradGradGradGradGradGrad

                          Input orientation:                          
 ---------------------------------------------------------------------
 Center     Atomic      Atomic             Coordinates (Angstroms)
 Number     Number       Type             X           Y           Z
 ---------------------------------------------------------------------
      1          6           0        0.887000    2.447000    0.106000
      2          6           0        0.149000    1.273000    0.191000
      3          6           0        0.818000    0.000000    0.130000
      4          6           0        2.246000    0.000000   -0.051000
      5          6           0        2.953000    1.231000   -0.135000
      6          6           0        2.287000    2.429000   -0.053000
      7          1           0        0.365000    3.395000    0.201000
      8          6           0        0.150000   -1.274000    0.190000
      9          6           0        2.954000   -1.229000   -0.140000
     10          1           0        4.033000    1.201000   -0.259000
     11          1           0        2.831000    3.368000   -0.109000
     12          6           0        2.288000   -2.428000   -0.064000
     13          6           0        0.888000   -2.448000    0.099000
     14          1           0        4.033000   -1.199000   -0.266000
     15          1           0        2.832000   -3.367000   -0.125000
     16          1           0        0.367000   -3.396000    0.192000
     17          7           0       -1.235000    1.349000    0.428000
     18          7           0       -1.233000   -1.352000    0.435000
     19          6           0       -1.975000    2.046000   -0.340000
     20          1           0       -1.569000    2.529000   -1.243000
     21          6           0       -1.977000   -2.044000   -0.334000
     22          1           0       -1.575000   -2.519000   -1.243000
     23          6           0       -3.433000    2.248000   -0.069000
     24          1           0       -3.655000    3.318000    0.048000
     25          1           0       -4.035000    1.895000   -0.917000
     26          1           0       -3.735000    1.716000    0.837000
     27          6           0       -3.433000   -2.248000   -0.058000
     28          1           0       -4.039000   -1.885000   -0.899000
     29          1           0       -3.655000   -3.319000    0.049000
     30          1           0       -3.730000   -1.726000    0.855000
 ---------------------------------------------------------------------
                    Distance matrix (angstroms):
                    1          2          3          4          5
     1  C    0.000000
     2  C    1.389297   0.000000
     3  C    2.448090   1.439379   0.000000
     4  C    2.803451   2.465056   1.439425   0.000000
     5  C    2.409376   2.823200   2.478671   1.422064   0.000000
     6  C    1.409115   2.442727   2.844555   2.429347   1.373129
     7  H    1.086376   2.132989   3.425825   3.889433   3.390212
     8  C    3.794215   2.547000   1.439757   2.464624   3.773256
     9  C    4.224450   3.773273   2.479080   1.421135   2.460005
    10  H    3.403389   3.910644   3.453976   2.163107   1.087509
    11  H    2.161852   3.416453   3.930994   3.418920   2.140638
    12  C    5.075168   4.282260   2.844946   2.428398   3.719617
    13  C    4.895005   3.794789   2.449197   2.803456   4.225402
    14  H    4.830012   4.626563   3.454076   2.162682   2.662416
    15  H    6.135062   5.369166   3.931655   3.418415   4.599603
    16  H    5.866724   4.674087   3.426377   3.888767   5.310692
    17  N    2.410845   1.406201   2.474553   3.763855   4.227320
    18  N    4.362917   2.976589   2.475385   3.763979   4.951705
    19  C    2.924168   2.321824   3.493976   4.699625   4.999143
    20  H    2.803295   2.566207   3.738815   4.729792   4.833317
    21  C    5.344640   3.974669   3.493602   4.700187   5.922004
    22  H    5.704595   4.405428   3.735899   4.729299   5.982721
    23  C    4.328120   3.721418   4.812910   6.107771   6.466811
    24  H    4.625124   4.321214   5.569881   6.770578   6.932151
    25  H    5.057402   4.372688   5.314023   6.617548   7.062901
    26  H    4.736202   3.962199   4.916738   6.285345   6.775644
    27  C    6.382188   5.028933   4.812468   6.107749   7.272576
    28  H    6.636394   5.357276   5.310604   6.616159   7.692933
    29  H    7.340284   5.964650   5.570462   6.771083   8.025087
    30  H    6.268303   4.947882   4.918232   6.285896   7.374716
                    6          7          8          9         10
     6  C    0.000000
     7  H    2.166046   0.000000
     8  C    4.282292   4.673961   0.000000
     9  C    3.719331   5.310422   2.823711   0.000000
    10  H    2.144513   4.298774   4.626545   2.661447   0.000000
    11  H    1.086643   2.485555   5.368922   4.598750   2.482578
    12  C    4.857013   6.138036   2.442801   1.373657   4.031463
    13  C    5.075966   5.867247   1.389677   2.410692   4.830568
    14  H    4.031906   5.897215   3.910403   1.086746   2.400010
    15  H    5.822012   7.205346   3.416577   2.141531   4.725143
    16  H    6.138163   6.791006   2.133068   3.390971   5.897064
    17  N    3.715137   2.607229   2.975735   4.951407   5.314668
    18  N    5.188883   5.014217   1.406698   4.228087   5.893233
    19  C    4.288788   2.754647   3.977301   5.921205   6.067673
    20  H    4.036686   2.564264   4.412625   5.983035   5.840740
    21  C    6.186145   5.945915   2.321983   5.001662   6.830501
    22  H    6.388572   6.389376   2.564983   4.836585   6.801200
    23  C    5.722885   3.976596   5.030850   7.272437   7.541450
    24  H    6.008984   4.023647   5.965287   8.024303   7.980055
    25  H    6.403072   4.781205   5.364908   7.694753   8.124483
    26  H    6.129025   4.475884   4.944890   7.373620   7.861823
    27  C    7.388691   6.807006   3.721299   6.468296   8.226613
    28  H    7.703544   6.963018   4.371151   7.064592   8.665459
    29  H    8.267846   7.826960   4.322029   6.934169   8.923598
    30  H    7.368363   6.589490   3.962440   6.775905   8.370931
                   11         12         13         14         15
    11  H    0.000000
    12  C    5.821554   0.000000
    13  C    6.135501   1.409599   0.000000
    14  H    4.725139   2.143891   3.403564   0.000000
    15  H    6.735019   1.086912   2.161914   2.482440   0.000000
    16  H    7.205109   2.166287   1.085723   4.298387   2.485469
    17  N    4.571333   5.188383   4.362634   5.892857   6.251956
    18  N    6.252234   3.715403   2.410965   5.314656   4.571439
    19  C    4.989858   6.185954   5.346543   6.828731   7.242516
    20  H    4.620593   6.390488   5.710371   6.799626   7.441878
    21  C    7.242737   4.290755   2.925565   6.069493   4.992043
    22  H    7.440132   4.039937   2.805775   5.843509   4.625006
    23  C    6.363466   7.388832   6.383704   8.225678   8.413179
    24  H    6.488093   8.267304   7.340859   8.922288   9.316669
    25  H    7.068561   7.706897   6.643029   8.665406   8.687439
    26  H    6.836401   7.366211   6.265434   8.369926   8.359894
    27  C    8.413070   5.723834   4.328474   7.542203   6.364501
    28  H    8.684182   6.404920   5.058488   8.125790   7.071495
    29  H    9.317142   6.010482   4.626012   7.981163   6.489511
    30  H    8.362108   6.128106   4.734844   7.861205   6.834700
                   16         17         18         19         20
    16  H    0.000000
    17  N    5.013694   0.000000
    18  N    2.607103   2.701010   0.000000
    19  C    5.948391   1.274062   3.563368   0.000000
    20  H    6.396323   2.072727   4.241549   1.101605   0.000000
    21  C    2.756613   3.555792   1.274269   4.090005   4.680286
    22  H    2.568992   4.227205   2.072326   4.670614   5.048004
    23  C    6.809028   2.426193   4.249002   1.496666   2.220751
    24  H    7.827836   3.142891   5.274917   2.142645   2.576936
    25  H    6.971525   3.153909   4.496901   2.144605   2.566980
    26  H    6.585968   2.559682   3.979225   2.142855   3.111097
    27  C    3.977487   4.243325   2.426080   4.543537   5.262932
    28  H    4.783956   4.481306   3.152345   4.474968   5.069776
    29  H    4.025278   5.271647   3.143910   5.635330   6.341905
    30  H    4.473687   3.982836   2.559548   4.328514   5.213113
                   21         22         23         24         25
    21  C    0.000000
    22  H    1.101594   0.000000
    23  C    4.539981   5.249260   0.000000
    24  H    5.631399   6.329585   1.099033   0.000000
    25  H    4.482296   5.063721   1.098234   1.760839   0.000000
    26  H    4.312703   5.189145   1.093190   1.787547   1.788451
    27  C    1.495904   2.220322   4.496013   5.571434   4.273726
    28  H    2.143910   2.567409   4.258853   5.302403   3.780045
    29  H    2.141961   2.575978   5.572674   6.637000   5.316329
    30  H    2.141928   3.110382   4.090802   5.108699   4.042852
                   26         27         28         29         30
    26  H    0.000000
    27  C    4.074988   0.000000
    28  H    4.009154   1.098311   0.000000
    29  H    5.096918   1.098988   1.761396   0.000000
    30  H    3.442051   1.092823   1.788093   1.786872   0.000000
 Stoichiometry    C14H14N2
 Framework group  C1[X(C14H14N2)]
 Deg. of freedom    84
 Full point group                 C1      NOp   1
 Largest Abelian subgroup         C1      NOp   1
 Largest concise Abelian subgroup C1      NOp   1
                         Standard orientation:                         
 ---------------------------------------------------------------------
 Center     Atomic      Atomic             Coordinates (Angstroms)
 Number     Number       Type             X           Y           Z
 ---------------------------------------------------------------------
      1          6           0       -0.887061    2.446894   -0.106054
      2          6           0       -0.149014    1.272923   -0.191054
      3          6           0       -0.817964   -0.000104   -0.130054
      4          6           0       -2.245964   -0.000160    0.050946
      5          6           0       -2.953013    1.230812    0.134946
      6          6           0       -2.287060    2.428839    0.052946
      7          1           0       -0.365098    3.394914   -0.201054
      8          6           0       -0.149914   -1.274077   -0.190054
      9          6           0       -2.953916   -1.229188    0.139946
     10          1           0       -4.033012    1.200770    0.258946
     11          1           0       -2.831097    3.367817    0.108946
     12          6           0       -2.287869   -2.428162    0.063946
     13          6           0       -0.887868   -2.448106   -0.099054
     14          1           0       -4.032917   -1.199230    0.265946
     15          1           0       -2.831832   -3.367183    0.124946
     16          1           0       -0.366831   -3.396086   -0.192054
     17          7           0        1.234983    1.348977   -0.428054
     18          7           0        1.233089   -1.352023   -0.435054
     19          6           0        1.974955    2.046006    0.339946
     20          1           0        1.568936    2.528990    1.242946
     21          6           0        1.977116   -2.043994    0.333946
     22          1           0        1.575135   -2.519009    1.242946
     23          6           0        3.432947    2.248064    0.068946
     24          1           0        3.654905    3.318072   -0.048054
     25          1           0        4.034961    1.895087    0.916946
     26          1           0        3.734968    1.716076   -0.837054
     27          6           0        3.433124   -2.247936    0.057946
     28          1           0        4.039110   -1.884912    0.898946
     29          1           0        3.655166   -3.318928   -0.049054
     30          1           0        3.730104   -1.725925   -0.855054
 ---------------------------------------------------------------------
 Rotational constants (GHZ):           0.6766908           0.5054069           0.2948418
 Standard basis: 6-31G(d) (6D, 7F)
 There are   268 symmetry adapted cartesian basis functions of A   symmetry.
 There are   268 symmetry adapted basis functions of A   symmetry.
   268 basis functions,   504 primitive gaussians,   268 cartesian basis functions
    56 alpha electrons       56 beta electrons
       nuclear repulsion energy      1011.0237723111 Hartrees.
 NAtoms=   30 NActive=   30 NUniq=   30 SFac= 1.00D+00 NAtFMM=   60 NAOKFM=F Big=F
 Integral buffers will be    131072 words long.
 Raffenetti 2 integral format.
 Two-electron integral symmetry is turned on.
 ------------------------------------------------------------------------------
 Polarizable Continuum Model (PCM)
 =================================
 Model                : PCM.
 Atomic radii         : SMD-Coulomb.
 Polarization charges : Total charges.
 Charge compensation  : None.
 Solution method      : On-the-fly selection.
 Cavity type          : VdW (van der Waals Surface) (Alpha=1.000).
 Cavity algorithm     : GePol (No added spheres)
                        Default sphere list used, NSphG=   30.
                        Lebedev-Laikov grids with approx.  5.0 points / Ang**2.
                        Smoothing algorithm: York/Karplus (Gamma=1.0000).
                        Polarization charges: spherical gaussians, with
                                              point-specific exponents (IZeta= 3).
                        Self-potential: point-specific (ISelfS= 7).
                        Self-field    : sphere-specific E.n sum rule (ISelfD= 2).
 1st derivatives      : Analytical E(r).r(x)/FMM algorithm (CHGder, D1EAlg=3).
                        Cavity 1st derivative terms included.
 Solvent              : Toluene, Eps=   2.374100 Eps(inf)=   2.238315
 ------------------------------------------------------------------------------
 ------------------------------------------------------------------------------
 Atomic radii for non-electrostatic terms: SMD-CDS.
 ------------------------------------------------------------------------------
 Nuclear repulsion after PCM non-electrostatic terms =     1011.0140304253 Hartrees.
 One-electron integrals computed using PRISM.
 NBasis=   268 RedAO= T EigKep=  2.40D-04  NBF=   268
 NBsUse=   268 1.00D-06 EigRej= -1.00D+00 NBFU=   268
 ExpMin= 1.61D-01 ExpMax= 4.17D+03 ExpMxC= 6.27D+02 IAcc=3 IRadAn=         5 AccDes= 0.00D+00
 Harris functional with IExCor=  402 and IRadAn=       5 diagonalized for initial guess.
 HarFok:  IExCor=  402 AccDes= 0.00D+00 IRadAn=         5 IDoV= 1 UseB2=F ITyADJ=14
 ICtDFT=  3500011 ScaDFX=  1.000000  1.000000  1.000000  1.000000
 FoFCou: FMM=F IPFlag=           0 FMFlag=      100000 FMFlg1=           0
         NFxFlg=           0 DoJE=T BraDBF=F KetDBF=T FulRan=T
         wScrn=  0.000000 ICntrl=       500 IOpCl=  0 I1Cent=   200000004 NGrid=           0
         NMat0=    1 NMatS0=      1 NMatT0=    0 NMatD0=    1 NMtDS0=    0 NMtDT0=    0
 Petite list used in FoFCou.
 Requested convergence on RMS density matrix=1.00D-08 within 128 cycles.
 Requested convergence on MAX density matrix=1.00D-06.
 Requested convergence on             energy=1.00D-06.
 No special actions if energy rises.
 Inv3:  Mode=1 IEnd=    16708800.
 Iteration    1 A*A^-1 deviation from unit magnitude is 3.77D-15 for   2346.
 Iteration    1 A*A^-1 deviation from orthogonality  is 2.93D-15 for   2346   1159.
 Iteration    1 A^-1*A deviation from unit magnitude is 3.66D-15 for   2346.
 Iteration    1 A^-1*A deviation from orthogonality  is 3.28D-15 for   1517   1483.
 Error on total polarization charges =  0.03046
 SCF Done:  E(RB3LYP) =  -651.420938544     A.U. after   13 cycles
            NFock= 13  Conv=0.46D-08     -V/T= 2.0098
 SMD-CDS (non-electrostatic) energy       (kcal/mol) =      -6.11
 (included in total energy above)

 **********************************************************************

            Population analysis using the SCF Density.

 **********************************************************************

 Orbital symmetries:
       Occupied  (A) (A) (A) (A) (A) (A) (A) (A) (A) (A) (A) (A)
                 (A) (A) (A) (A) (A) (A) (A) (A) (A) (A) (A) (A)
                 (A) (A) (A) (A) (A) (A) (A) (A) (A) (A) (A) (A)
                 (A) (A) (A) (A) (A) (A) (A) (A) (A) (A) (A) (A)
                 (A) (A) (A) (A) (A) (A) (A) (A)
       Virtual   (A) (A) (A) (A) (A) (A) (A) (A) (A) (A) (A) (A)
                 (A) (A) (A) (A) (A) (A) (A) (A) (A) (A) (A) (A)
                 (A) (A) (A) (A) (A) (A) (A) (A) (A) (A) (A) (A)
                 (A) (A) (A) (A) (A) (A) (A) (A) (A) (A) (A) (A)
                 (A) (A) (A) (A) (A) (A) (A) (A) (A) (A) (A) (A)
                 (A) (A) (A) (A) (A) (A) (A) (A) (A) (A) (A) (A)
                 (A) (A) (A) (A) (A) (A) (A) (A) (A) (A) (A) (A)
                 (A) (A) (A) (A) (A) (A) (A) (A) (A) (A) (A) (A)
                 (A) (A) (A) (A) (A) (A) (A) (A) (A) (A) (A) (A)
                 (A) (A) (A) (A) (A) (A) (A) (A) (A) (A) (A) (A)
                 (A) (A) (A) (A) (A) (A) (A) (A) (A) (A) (A) (A)
                 (A) (A) (A) (A) (A) (A) (A) (A) (A) (A) (A) (A)
                 (A) (A) (A) (A) (A) (A) (A) (A) (A) (A) (A) (A)
                 (A) (A) (A) (A) (A) (A) (A) (A) (A) (A) (A) (A)
                 (A) (A) (A) (A) (A) (A) (A) (A) (A) (A) (A) (A)
                 (A) (A) (A) (A) (A) (A) (A) (A) (A) (A) (A) (A)
                 (A) (A) (A) (A) (A) (A) (A) (A) (A) (A) (A) (A)
                 (A) (A) (A) (A) (A) (A) (A) (A)
 The electronic state is 1-A.
 Alpha  occ. eigenvalues --  -14.32809 -14.32808 -10.23152 -10.23139 -10.21987
 Alpha  occ. eigenvalues --  -10.21983 -10.19732 -10.19404 -10.18448 -10.18439
 Alpha  occ. eigenvalues --  -10.18109 -10.18100 -10.18061 -10.18060 -10.17984
 Alpha  occ. eigenvalues --  -10.17975  -0.93724  -0.92391  -0.85600  -0.80928
 Alpha  occ. eigenvalues --   -0.77129  -0.74520  -0.73481  -0.71782  -0.69198
 Alpha  occ. eigenvalues --   -0.62506  -0.61393  -0.60421  -0.56500  -0.54055
 Alpha  occ. eigenvalues --   -0.51774  -0.50776  -0.49262  -0.48037  -0.45058
 Alpha  occ. eigenvalues --   -0.44587  -0.42741  -0.42083  -0.41857  -0.41377
 Alpha  occ. eigenvalues --   -0.40503  -0.39622  -0.38905  -0.38445  -0.37660
 Alpha  occ. eigenvalues --   -0.37112  -0.34469  -0.33987  -0.32733  -0.32110
 Alpha  occ. eigenvalues --   -0.29222  -0.29064  -0.24875  -0.24043  -0.23690
 Alpha  occ. eigenvalues --   -0.18925
 Alpha virt. eigenvalues --   -0.03322  -0.02114  -0.00274   0.02476   0.05557
 Alpha virt. eigenvalues --    0.10806   0.10858   0.11154   0.12631   0.13324
 Alpha virt. eigenvalues --    0.14039   0.14998   0.15910   0.16383   0.16904
 Alpha virt. eigenvalues --    0.17270   0.18832   0.19059   0.19163   0.20458
 Alpha virt. eigenvalues --    0.21108   0.24250   0.24656   0.25254   0.26914
 Alpha virt. eigenvalues --    0.27659   0.28323   0.32601   0.33494   0.33912
 Alpha virt. eigenvalues --    0.36556   0.36647   0.40447   0.43134   0.47209
 Alpha virt. eigenvalues --    0.49796   0.51652   0.51873   0.52101   0.52722
 Alpha virt. eigenvalues --    0.53870   0.55199   0.55410   0.56784   0.56837
 Alpha virt. eigenvalues --    0.57196   0.58750   0.59235   0.59599   0.60194
 Alpha virt. eigenvalues --    0.60679   0.61209   0.61343   0.61835   0.62323
 Alpha virt. eigenvalues --    0.63629   0.63850   0.64591   0.64981   0.67062
 Alpha virt. eigenvalues --    0.67149   0.68019   0.70612   0.71393   0.71643
 Alpha virt. eigenvalues --    0.74738   0.75291   0.76834   0.77953   0.79840
 Alpha virt. eigenvalues --    0.81454   0.82342   0.82881   0.84434   0.85603
 Alpha virt. eigenvalues --    0.86141   0.86344   0.86652   0.87406   0.87920
 Alpha virt. eigenvalues --    0.88955   0.89210   0.90415   0.90492   0.91949
 Alpha virt. eigenvalues --    0.94162   0.94568   0.94926   0.96839   0.97544
 Alpha virt. eigenvalues --    0.98272   1.00699   1.01841   1.03301   1.06570
 Alpha virt. eigenvalues --    1.08408   1.09090   1.09246   1.10591   1.15173
 Alpha virt. eigenvalues --    1.18174   1.19656   1.20424   1.23425   1.26158
 Alpha virt. eigenvalues --    1.26411   1.27591   1.31039   1.33580   1.34330
 Alpha virt. eigenvalues --    1.37081   1.39971   1.42194   1.44221   1.45111
 Alpha virt. eigenvalues --    1.47441   1.48081   1.49296   1.49932   1.51792
 Alpha virt. eigenvalues --    1.52427   1.57503   1.58587   1.59308   1.64642
 Alpha virt. eigenvalues --    1.64676   1.67518   1.71943   1.74661   1.76129
 Alpha virt. eigenvalues --    1.76893   1.80744   1.81928   1.83399   1.86624
 Alpha virt. eigenvalues --    1.88579   1.89912   1.90950   1.91514   1.93440
 Alpha virt. eigenvalues --    1.93944   1.95832   1.96216   1.99214   2.00425
 Alpha virt. eigenvalues --    2.00985   2.05191   2.05612   2.06219   2.11119
 Alpha virt. eigenvalues --    2.12724   2.13852   2.16055   2.16803   2.20414
 Alpha virt. eigenvalues --    2.21007   2.24453   2.24568   2.25410   2.25969
 Alpha virt. eigenvalues --    2.27889   2.29180   2.30967   2.33254   2.33897
 Alpha virt. eigenvalues --    2.35458   2.36810   2.37373   2.40555   2.43591
 Alpha virt. eigenvalues --    2.45312   2.47574   2.51046   2.52416   2.59542
 Alpha virt. eigenvalues --    2.61884   2.63243   2.63882   2.65641   2.69342
 Alpha virt. eigenvalues --    2.69695   2.73934   2.74089   2.79090   2.80595
 Alpha virt. eigenvalues --    2.81947   2.83492   2.88477   2.93566   2.95871
 Alpha virt. eigenvalues --    3.01290   3.08039   3.11852   3.21997   3.38338
 Alpha virt. eigenvalues --    3.49071   3.95335   4.07851   4.09652   4.10304
 Alpha virt. eigenvalues --    4.11705   4.12901   4.16443   4.17835   4.26747
 Alpha virt. eigenvalues --    4.33313   4.34886   4.36223   4.39828   4.47131
 Alpha virt. eigenvalues --    4.55794   4.84395
          Condensed to atoms (all electrons):
               1          2          3          4          5          6
     1  C    5.098762   0.488428  -0.033219  -0.045750  -0.027867   0.451872
     2  C    0.488428   4.892323   0.369548  -0.025240  -0.062040   0.004097
     3  C   -0.033219   0.369548   5.034539   0.461576  -0.029069  -0.041604
     4  C   -0.045750  -0.025240   0.461576   4.747577   0.446158   0.002806
     5  C   -0.027867  -0.062040  -0.029069   0.446158   5.116481   0.506666
     6  C    0.451872   0.004097  -0.041604   0.002806   0.506666   4.944221
     7  H    0.354261  -0.040393   0.004688   0.000603   0.004568  -0.040355
     8  C    0.009500  -0.086719   0.369334  -0.025349   0.012881  -0.001256
     9  C   -0.000036   0.012896  -0.029544   0.446531  -0.084078   0.008278
    10  H    0.004561   0.000578   0.004302  -0.041888   0.359493  -0.044946
    11  H   -0.035633   0.002914   0.001203   0.002494  -0.035121   0.354787
    12  C    0.000035  -0.001250  -0.041501   0.002919   0.008241  -0.000400
    13  C   -0.000250   0.009427  -0.033365  -0.045570  -0.000021   0.000034
    14  H    0.000012  -0.000136   0.004303  -0.041874  -0.008458   0.000340
    15  H   -0.000000   0.000016   0.001205   0.002488  -0.000216   0.000003
    16  H    0.000002  -0.000133   0.004690   0.000600   0.000006  -0.000000
    17  N   -0.085620   0.306788  -0.068925   0.004471   0.000117   0.006120
    18  N    0.000471  -0.007809  -0.068867   0.004450  -0.000077  -0.000011
    19  C   -0.016934  -0.039269   0.001988  -0.000227   0.000027   0.000303
    20  H    0.013824  -0.008014  -0.000103  -0.000061  -0.000034  -0.000484
    21  C    0.000030   0.001360   0.001921  -0.000228   0.000000  -0.000000
    22  H   -0.000000   0.000079  -0.000095  -0.000061   0.000001  -0.000000
    23  C    0.000007   0.004724  -0.000140   0.000005  -0.000000   0.000008
    24  H    0.000017  -0.000083  -0.000007  -0.000000   0.000000  -0.000002
    25  H    0.000006  -0.000224   0.000024  -0.000000  -0.000000   0.000000
    26  H    0.000020   0.000408  -0.000032  -0.000000   0.000000  -0.000000
    27  C   -0.000000  -0.000106  -0.000139   0.000005  -0.000000   0.000000
    28  H   -0.000000  -0.000005   0.000025  -0.000000   0.000000   0.000000
    29  H    0.000000   0.000002  -0.000007  -0.000000   0.000000  -0.000000
    30  H    0.000000   0.000015  -0.000032  -0.000000   0.000000  -0.000000
               7          8          9         10         11         12
     1  C    0.354261   0.009500  -0.000036   0.004561  -0.035633   0.000035
     2  C   -0.040393  -0.086719   0.012896   0.000578   0.002914  -0.001250
     3  C    0.004688   0.369334  -0.029544   0.004302   0.001203  -0.041501
     4  C    0.000603  -0.025349   0.446531  -0.041888   0.002494   0.002919
     5  C    0.004568   0.012881  -0.084078   0.359493  -0.035121   0.008241
     6  C   -0.040355  -0.001256   0.008278  -0.044946   0.354787  -0.000400
     7  H    0.583540  -0.000133   0.000006  -0.000177  -0.004753  -0.000000
     8  C   -0.000133   4.893329  -0.061875  -0.000136   0.000016   0.003907
     9  C    0.000006  -0.061875   5.116526  -0.008447  -0.000216   0.506521
    10  H   -0.000177  -0.000136  -0.008447   0.585907  -0.004818   0.000341
    11  H   -0.004753   0.000016  -0.000216  -0.004818   0.577002   0.000003
    12  C   -0.000000   0.003907   0.506521   0.000341   0.000003   4.944465
    13  C    0.000002   0.489200  -0.028134   0.000012  -0.000000   0.452261
    14  H   -0.000000   0.000574   0.359677   0.006292  -0.000011  -0.044991
    15  H    0.000000   0.002916  -0.035083  -0.000011  -0.000000   0.354691
    16  H   -0.000000  -0.040382   0.004557  -0.000000   0.000000  -0.040314
    17  N   -0.008699  -0.007863  -0.000077   0.000005  -0.000117  -0.000011
    18  N    0.000006   0.306437   0.000125   0.000001  -0.000000   0.006083
    19  C    0.005800   0.001334   0.000000  -0.000000  -0.000018  -0.000000
    20  H    0.003553   0.000078   0.000001  -0.000000   0.000020  -0.000000
    21  C    0.000000  -0.039042   0.000027  -0.000000   0.000000   0.000300
    22  H    0.000000  -0.007985  -0.000035   0.000000  -0.000000  -0.000475
    23  C   -0.000505  -0.000105  -0.000000   0.000000  -0.000000   0.000000
    24  H    0.000034   0.000002   0.000000  -0.000000   0.000000  -0.000000
    25  H    0.000010  -0.000005   0.000000  -0.000000  -0.000000   0.000000
    26  H    0.000018   0.000015   0.000000   0.000000   0.000000  -0.000000
    27  C   -0.000000   0.004723  -0.000000   0.000000   0.000000   0.000008
    28  H   -0.000000  -0.000225  -0.000000  -0.000000   0.000000   0.000000
    29  H    0.000000  -0.000084   0.000000   0.000000  -0.000000  -0.000002
    30  H    0.000000   0.000405   0.000000   0.000000   0.000000  -0.000000
              13         14         15         16         17         18
     1  C   -0.000250   0.000012  -0.000000   0.000002  -0.085620   0.000471
     2  C    0.009427  -0.000136   0.000016  -0.000133   0.306788  -0.007809
     3  C   -0.033365   0.004303   0.001205   0.004690  -0.068925  -0.068867
     4  C   -0.045570  -0.041874   0.002488   0.000600   0.004471   0.004450
     5  C   -0.000021  -0.008458  -0.000216   0.000006   0.000117  -0.000077
     6  C    0.000034   0.000340   0.000003  -0.000000   0.006120  -0.000011
     7  H    0.000002  -0.000000   0.000000  -0.000000  -0.008699   0.000006
     8  C    0.489200   0.000574   0.002916  -0.040382  -0.007863   0.306437
     9  C   -0.028134   0.359677  -0.035083   0.004557  -0.000077   0.000125
    10  H    0.000012   0.006292  -0.000011  -0.000000   0.000005   0.000001
    11  H   -0.000000  -0.000011  -0.000000   0.000000  -0.000117  -0.000000
    12  C    0.452261  -0.044991   0.354691  -0.040314  -0.000011   0.006083
    13  C    5.097137   0.004556  -0.035661   0.354340   0.000472  -0.085357
    14  H    0.004556   0.585657  -0.004807  -0.000177   0.000001   0.000005
    15  H   -0.035661  -0.004807   0.577152  -0.004742  -0.000000  -0.000117
    16  H    0.354340  -0.000177  -0.004742   0.583314   0.000006  -0.008634
    17  N    0.000472   0.000001  -0.000000   0.000006   6.810672  -0.012794
    18  N   -0.085357   0.000005  -0.000117  -0.008634  -0.012794   6.810433
    19  C    0.000030  -0.000000   0.000000   0.000000   0.573546   0.000075
    20  H   -0.000000   0.000000  -0.000000   0.000000  -0.058215  -0.000063
    21  C   -0.016839  -0.000000  -0.000018   0.005813   0.000102   0.573141
    22  H    0.013725  -0.000000   0.000020   0.003517  -0.000066  -0.058342
    23  C   -0.000000   0.000000   0.000000  -0.000000  -0.064885  -0.000030
    24  H    0.000000   0.000000  -0.000000   0.000000   0.000532  -0.000001
    25  H   -0.000000  -0.000000   0.000000  -0.000000   0.000289   0.000021
    26  H    0.000000   0.000000   0.000000   0.000000   0.006239   0.000144
    27  C    0.000005   0.000000  -0.000000  -0.000506  -0.000031  -0.064808
    28  H    0.000006  -0.000000  -0.000000   0.000010   0.000022   0.000254
    29  H    0.000017  -0.000000   0.000000   0.000034  -0.000001   0.000562
    30  H    0.000020   0.000000   0.000000   0.000018   0.000142   0.006233
              19         20         21         22         23         24
     1  C   -0.016934   0.013824   0.000030  -0.000000   0.000007   0.000017
     2  C   -0.039269  -0.008014   0.001360   0.000079   0.004724  -0.000083
     3  C    0.001988  -0.000103   0.001921  -0.000095  -0.000140  -0.000007
     4  C   -0.000227  -0.000061  -0.000228  -0.000061   0.000005  -0.000000
     5  C    0.000027  -0.000034   0.000000   0.000001  -0.000000   0.000000
     6  C    0.000303  -0.000484  -0.000000  -0.000000   0.000008  -0.000002
     7  H    0.005800   0.003553   0.000000   0.000000  -0.000505   0.000034
     8  C    0.001334   0.000078  -0.039042  -0.007985  -0.000105   0.000002
     9  C    0.000000   0.000001   0.000027  -0.000035  -0.000000   0.000000
    10  H   -0.000000  -0.000000  -0.000000   0.000000   0.000000  -0.000000
    11  H   -0.000018   0.000020   0.000000  -0.000000  -0.000000   0.000000
    12  C   -0.000000  -0.000000   0.000300  -0.000475   0.000000  -0.000000
    13  C    0.000030  -0.000000  -0.016839   0.013725  -0.000000   0.000000
    14  H   -0.000000   0.000000  -0.000000  -0.000000   0.000000   0.000000
    15  H    0.000000  -0.000000  -0.000018   0.000020   0.000000  -0.000000
    16  H    0.000000   0.000000   0.005813   0.003517  -0.000000   0.000000
    17  N    0.573546  -0.058215   0.000102  -0.000066  -0.064885   0.000532
    18  N    0.000075  -0.000063   0.573141  -0.058342  -0.000030  -0.000001
    19  C    4.769155   0.337515   0.000045  -0.000013   0.355990  -0.026902
    20  H    0.337515   0.643928  -0.000013  -0.000009  -0.075251   0.001607
    21  C    0.000045  -0.000013   4.768809   0.337808   0.000078  -0.000001
    22  H   -0.000013  -0.000009   0.337808   0.643955   0.000005  -0.000000
    23  C    0.355990  -0.075251   0.000078   0.000005   5.206298   0.361180
    24  H   -0.026902   0.001607  -0.000001  -0.000000   0.361180   0.545063
    25  H   -0.025825   0.002158   0.000024   0.000001   0.359067  -0.031140
    26  H   -0.029971   0.005377  -0.000015   0.000002   0.359807  -0.022489
    27  C    0.000075   0.000005   0.355945  -0.075274  -0.000005   0.000001
    28  H    0.000025   0.000001  -0.025824   0.002142   0.000019   0.000000
    29  H   -0.000001  -0.000000  -0.026925   0.001591   0.000001  -0.000000
    30  H   -0.000014   0.000001  -0.029968   0.005393   0.000021   0.000000
              25         26         27         28         29         30
     1  C    0.000006   0.000020  -0.000000  -0.000000   0.000000   0.000000
     2  C   -0.000224   0.000408  -0.000106  -0.000005   0.000002   0.000015
     3  C    0.000024  -0.000032  -0.000139   0.000025  -0.000007  -0.000032
     4  C   -0.000000  -0.000000   0.000005  -0.000000  -0.000000  -0.000000
     5  C   -0.000000   0.000000  -0.000000   0.000000   0.000000   0.000000
     6  C    0.000000  -0.000000   0.000000   0.000000  -0.000000  -0.000000
     7  H    0.000010   0.000018  -0.000000  -0.000000   0.000000   0.000000
     8  C   -0.000005   0.000015   0.004723  -0.000225  -0.000084   0.000405
     9  C    0.000000   0.000000  -0.000000  -0.000000   0.000000   0.000000
    10  H   -0.000000   0.000000   0.000000  -0.000000   0.000000   0.000000
    11  H   -0.000000   0.000000   0.000000   0.000000  -0.000000   0.000000
    12  C    0.000000  -0.000000   0.000008   0.000000  -0.000002  -0.000000
    13  C   -0.000000   0.000000   0.000005   0.000006   0.000017   0.000020
    14  H   -0.000000   0.000000   0.000000  -0.000000  -0.000000   0.000000
    15  H    0.000000   0.000000  -0.000000  -0.000000   0.000000   0.000000
    16  H   -0.000000   0.000000  -0.000506   0.000010   0.000034   0.000018
    17  N    0.000289   0.006239  -0.000031   0.000022  -0.000001   0.000142
    18  N    0.000021   0.000144  -0.064808   0.000254   0.000562   0.006233
    19  C   -0.025825  -0.029971   0.000075   0.000025  -0.000001  -0.000014
    20  H    0.002158   0.005377   0.000005   0.000001  -0.000000   0.000001
    21  C    0.000024  -0.000015   0.355945  -0.025824  -0.026925  -0.029968
    22  H    0.000001   0.000002  -0.075274   0.002142   0.001591   0.005393
    23  C    0.359067   0.359807  -0.000005   0.000019   0.000001   0.000021
    24  H   -0.031140  -0.022489   0.000001   0.000000  -0.000000   0.000000
    25  H    0.548366  -0.022282   0.000016   0.000073   0.000000   0.000002
    26  H   -0.022282   0.520504   0.000029   0.000003   0.000000   0.000392
    27  C    0.000016   0.000029   5.206271   0.359141   0.361137   0.359786
    28  H    0.000073   0.000003   0.359141   0.548122  -0.031077  -0.022267
    29  H    0.000000   0.000000   0.361137  -0.031077   0.545230  -0.022553
    30  H    0.000002   0.000392   0.359786  -0.022267  -0.022553   0.520543
 Mulliken charges:
               1
     1  C   -0.176500
     2  C    0.177819
     3  C    0.087304
     4  C    0.103564
     5  C   -0.207658
     6  C   -0.150477
     7  H    0.137927
     8  C    0.176509
     9  C   -0.207623
    10  H    0.138930
    11  H    0.142248
    12  C   -0.150830
    13  C   -0.176048
    14  H    0.139037
    15  H    0.142165
    16  H    0.137980
    17  N   -0.402217
    18  N   -0.401528
    19  C    0.093263
    20  H    0.134180
    21  C    0.093470
    22  H    0.134118
    23  C   -0.506289
    24  H    0.172189
    25  H    0.169419
    26  H    0.181832
    27  C   -0.506278
    28  H    0.169553
    29  H    0.172077
    30  H    0.181864
 Sum of Mulliken charges =  -0.00000
 Mulliken charges with hydrogens summed into heavy atoms:
               1
     1  C   -0.038574
     2  C    0.177819
     3  C    0.087304
     4  C    0.103564
     5  C   -0.068728
     6  C   -0.008229
     8  C    0.176509
     9  C   -0.068585
    12  C   -0.008665
    13  C   -0.038068
    17  N   -0.402217
    18  N   -0.401528
    19  C    0.227443
    21  C    0.227587
    23  C    0.017151
    27  C    0.017216
 Electronic spatial extent (au):  <R**2>=           3711.5983
 Charge=              0.0000 electrons
 Dipole moment (field-independent basis, Debye):
    X=              1.7486    Y=              0.0108    Z=              2.4798  Tot=              3.0344
 Quadrupole moment (field-independent basis, Debye-Ang):
   XX=            -77.9264   YY=            -78.2775   ZZ=            -97.7085
   XY=              0.0041   XZ=              3.5170   YZ=             -0.0196
 Traceless Quadrupole moment (field-independent basis, Debye-Ang):
   XX=              6.7111   YY=              6.3600   ZZ=            -13.0711
   XY=              0.0041   XZ=              3.5170   YZ=             -0.0196
 Octapole moment (field-independent basis, Debye-Ang**2):
  XXX=             18.8177  YYY=              0.0879  ZZZ=              2.3657  XYY=             15.4698
  XXY=              0.0041  XXZ=             11.5227  XZZ=             12.5760  YZZ=              0.0400
  YYZ=              5.9526  XYZ=              0.0935
 Hexadecapole moment (field-independent basis, Debye-Ang**3):
 XXXX=          -2588.2077 YYYY=          -1914.9154 ZZZZ=           -152.9118 XXXY=             -0.0500
 XXXZ=             -1.9766 YYYX=              0.0955 YYYZ=             -0.3031 ZZZX=              6.0499
 ZZZY=              0.1163 XXYY=           -714.3874 XXZZ=           -512.6298 YYZZ=           -396.0852
 XXYZ=             -0.0577 YYXZ=              7.4808 ZZXY=              0.0743
 N-N= 1.011014030425D+03 E-N=-3.532487004255D+03  KE= 6.450946998524D+02
 D1PCM: PCM CHGder 1st derivatives, ID1Alg=3 FixD1E=F DoIter=F DoCFld=F I1PDM=0.
 Calling FoFJK, ICntrl=      2127 FMM=F ISym2X=0 I1Cent= 0 IOpClX= 0 NMat=1 NMatS=1 NMatT=0.
 ***** Axes restored to original set *****
 -------------------------------------------------------------------
 Center     Atomic                   Forces (Hartrees/Bohr)
 Number     Number              X              Y              Z
 -------------------------------------------------------------------
      1        6           0.000049543    0.000626011   -0.000038601
      2        6          -0.000047854    0.000120076   -0.000016257
      3        6           0.000580832   -0.000489758   -0.000163019
      4        6          -0.000012134    0.000745520    0.000041808
      5        6           0.000456049   -0.000838970    0.000048840
      6        6          -0.000371645    0.000124307    0.000018711
      7        1           0.000159306   -0.000262728   -0.000015332
      8        6          -0.000215176   -0.000174736    0.000153746
      9        6          -0.000270183   -0.000206419   -0.000130160
     10        1          -0.000350792    0.000085756    0.000007659
     11        1           0.000060841    0.000173383   -0.000021240
     12        6          -0.000497945   -0.000177627    0.000255360
     13        6           0.000631088    0.000336238   -0.000235387
     14        1           0.000142957    0.000042538    0.000013571
     15        1           0.000038185    0.000014376   -0.000042227
     16        1          -0.000037414   -0.000097933    0.000038895
     17        7          -0.000278082   -0.000062240    0.000119561
     18        7          -0.000200868   -0.000084750    0.000026204
     19        6          -0.000234599    0.000105357    0.000012732
     20        1          -0.000014177   -0.000006412   -0.000023527
     21        6           0.000363063    0.000192853   -0.000082400
     22        1          -0.000070904   -0.000071381   -0.000003065
     23        6           0.000184715    0.000170568    0.000042286
     24        1           0.000071337   -0.000223021    0.000045023
     25        1          -0.000035216   -0.000078462   -0.000088113
     26        1           0.000029067    0.000082211   -0.000057977
     27        6          -0.000070851   -0.000334647    0.000041270
     28        1          -0.000028076    0.000008362   -0.000055742
     29        1           0.000018056    0.000198180   -0.000030065
     30        1          -0.000049124    0.000083348    0.000137446
 -------------------------------------------------------------------
 Cartesian Forces:  Max     0.000838970 RMS     0.000231440

 GradGradGradGradGradGradGradGradGradGradGradGradGradGradGradGradGradGrad
 Berny optimization.
 FormGI is forming the generalized inverse of G from B-inverse, IUseBI=4.
 Internal  Forces:  Max     0.000521717 RMS     0.000113014
 Search for a local minimum.
 Step number   1 out of a maximum of  155
 All quantities printed in internal units (Hartrees-Bohrs-Radians)
 Mixed Optimization -- En-DIIS/RFO-DIIS
 Second derivative matrix not updated -- first step.
 ITU=  0
     Eigenvalues ---    0.00810   0.00820   0.01491   0.01497   0.01603
     Eigenvalues ---    0.01610   0.01617   0.01639   0.01702   0.01845
     Eigenvalues ---    0.01849   0.01924   0.01965   0.02066   0.02073
     Eigenvalues ---    0.02113   0.02123   0.02158   0.02170   0.02259
     Eigenvalues ---    0.02267   0.03355   0.03358   0.07263   0.07270
     Eigenvalues ---    0.07444   0.07448   0.15989   0.15989   0.16000
     Eigenvalues ---    0.16000   0.16000   0.16000   0.16000   0.16000
     Eigenvalues ---    0.16000   0.16000   0.16000   0.16000   0.16000
     Eigenvalues ---    0.16000   0.22000   0.22000   0.22060   0.22127
     Eigenvalues ---    0.23290   0.23687   0.24859   0.24905   0.24921
     Eigenvalues ---    0.24937   0.25000   0.25000   0.32730   0.32811
     Eigenvalues ---    0.33505   0.33506   0.33789   0.33794   0.33870
     Eigenvalues ---    0.33878   0.34447   0.34488   0.35102   0.35172
     Eigenvalues ---    0.35191   0.35203   0.35235   0.35312   0.35946
     Eigenvalues ---    0.38283   0.38440   0.40883   0.41161   0.43141
     Eigenvalues ---    0.43278   0.44528   0.44608   0.46256   0.46386
     Eigenvalues ---    0.49112   0.49255   0.74877   0.74944
 RFO step:  Lambda=-5.99682661D-06 EMin= 8.10050465D-03
 Linear search not attempted -- first point.
 Iteration  1 RMS(Cart)=  0.00054229 RMS(Int)=  0.00000035
 Iteration  2 RMS(Cart)=  0.00000061 RMS(Int)=  0.00000021
 Variable       Old X    -DE/DX   Delta X   Delta X   Delta X     New X
                                 (Linear)    (Quad)   (Total)
    R1        2.62539   0.00028   0.00000   0.00063   0.00063   2.62602
    R2        2.66284  -0.00010   0.00000  -0.00020  -0.00020   2.66264
    R3        2.05295  -0.00031   0.00000  -0.00087  -0.00087   2.05208
    R4        2.72003   0.00043   0.00000   0.00110   0.00110   2.72113
    R5        2.65733   0.00028   0.00000   0.00063   0.00063   2.65797
    R6        2.72012  -0.00020   0.00000  -0.00051  -0.00051   2.71961
    R7        2.72075   0.00015   0.00000   0.00038   0.00038   2.72113
    R8        2.68731  -0.00037   0.00000  -0.00091  -0.00091   2.68640
    R9        2.68556   0.00014   0.00000   0.00034   0.00034   2.68589
   R10        2.59484   0.00045   0.00000   0.00088   0.00088   2.59571
   R11        2.05509  -0.00035   0.00000  -0.00100  -0.00100   2.05409
   R12        2.05346   0.00018   0.00000   0.00051   0.00051   2.05397
   R13        2.62611  -0.00004   0.00000  -0.00010  -0.00010   2.62600
   R14        2.65827   0.00004   0.00000   0.00009   0.00009   2.65836
   R15        2.59584   0.00001   0.00000   0.00001   0.00001   2.59585
   R16        2.05365   0.00014   0.00000   0.00040   0.00040   2.05405
   R17        2.66376  -0.00052   0.00000  -0.00121  -0.00121   2.66254
   R18        2.05397   0.00001   0.00000   0.00003   0.00003   2.05399
   R19        2.05172   0.00011   0.00000   0.00030   0.00030   2.05202
   R20        2.40763   0.00006   0.00000   0.00008   0.00008   2.40771
   R21        2.40802  -0.00012   0.00000  -0.00017  -0.00017   2.40785
   R22        2.08173   0.00001   0.00000   0.00003   0.00003   2.08176
   R23        2.82829  -0.00026   0.00000  -0.00079  -0.00079   2.82750
   R24        2.08171   0.00001   0.00000   0.00003   0.00003   2.08174
   R25        2.82685   0.00015   0.00000   0.00045   0.00045   2.82730
   R26        2.07687  -0.00023   0.00000  -0.00067  -0.00067   2.07620
   R27        2.07536   0.00011   0.00000   0.00033   0.00033   2.07569
   R28        2.06583  -0.00009   0.00000  -0.00027  -0.00027   2.06555
   R29        2.07551   0.00006   0.00000   0.00019   0.00019   2.07570
   R30        2.07679  -0.00020   0.00000  -0.00059  -0.00059   2.07619
   R31        2.06514   0.00016   0.00000   0.00048   0.00048   2.06561
    A1        2.12219  -0.00012   0.00000  -0.00038  -0.00038   2.12181
    A2        2.06781   0.00007   0.00000   0.00025   0.00025   2.06807
    A3        2.09255   0.00005   0.00000   0.00011   0.00011   2.09266
    A4        2.09193  -0.00003   0.00000  -0.00002  -0.00002   2.09191
    A5        2.07997   0.00003   0.00000   0.00007   0.00007   2.08004
    A6        2.10876   0.00000   0.00000  -0.00004  -0.00004   2.10872
    A7        2.05604  -0.00005   0.00000  -0.00022  -0.00022   2.05582
    A8        2.17145  -0.00005   0.00000  -0.00021  -0.00021   2.17123
    A9        2.05502   0.00010   0.00000   0.00046   0.00046   2.05548
   A10        2.09514   0.00017   0.00000   0.00052   0.00052   2.09566
   A11        2.09684  -0.00020   0.00000  -0.00069  -0.00069   2.09615
   A12        2.09120   0.00004   0.00000   0.00017   0.00017   2.09137
   A13        2.10665  -0.00001   0.00000  -0.00014  -0.00014   2.10651
   A14        2.06757   0.00008   0.00000   0.00056   0.00056   2.06812
   A15        2.10895  -0.00007   0.00000  -0.00042  -0.00042   2.10853
   A16        2.09413   0.00004   0.00000   0.00025   0.00025   2.09438
   A17        2.08537  -0.00006   0.00000  -0.00034  -0.00034   2.08503
   A18        2.10369   0.00001   0.00000   0.00009   0.00009   2.10378
   A19        2.09257  -0.00012   0.00000  -0.00047  -0.00047   2.09210
   A20        2.10886   0.00007   0.00000   0.00035   0.00035   2.10921
   A21        2.07907   0.00004   0.00000   0.00022   0.00022   2.07930
   A22        2.10579   0.00011   0.00000   0.00048   0.00047   2.10627
   A23        2.06921  -0.00009   0.00000  -0.00049  -0.00049   2.06872
   A24        2.10818  -0.00002   0.00000   0.00001   0.00001   2.10819
   A25        2.09476  -0.00003   0.00000  -0.00027  -0.00027   2.09449
   A26        2.10401  -0.00003   0.00000  -0.00015  -0.00015   2.10386
   A27        2.08441   0.00006   0.00000   0.00042   0.00042   2.08483
   A28        2.12120   0.00014   0.00000   0.00051   0.00051   2.12171
   A29        2.06825  -0.00006   0.00000  -0.00021  -0.00021   2.06805
   A30        2.09311  -0.00008   0.00000  -0.00036  -0.00036   2.09276
   A31        2.09396  -0.00006   0.00000  -0.00024  -0.00024   2.09372
   A32        2.09328  -0.00006   0.00000  -0.00023  -0.00023   2.09305
   A33        2.11755   0.00003   0.00000   0.00014   0.00014   2.11770
   A34        2.12999  -0.00002   0.00000  -0.00010  -0.00010   2.12989
   A35        2.03564  -0.00000   0.00000  -0.00005  -0.00005   2.03559
   A36        2.11656   0.00014   0.00000   0.00082   0.00082   2.11738
   A37        2.13058  -0.00010   0.00000  -0.00044  -0.00044   2.13014
   A38        2.03603  -0.00005   0.00000  -0.00037  -0.00037   2.03567
   A39        1.92565  -0.00001   0.00000  -0.00010  -0.00010   1.92555
   A40        1.92922  -0.00003   0.00000  -0.00006  -0.00006   1.92916
   A41        1.93211   0.00000   0.00000  -0.00010  -0.00010   1.93201
   A42        1.85919   0.00006   0.00000   0.00063   0.00063   1.85981
   A43        1.90685  -0.00004   0.00000  -0.00047  -0.00047   1.90638
   A44        1.90930   0.00002   0.00000   0.00012   0.00012   1.90942
   A45        1.92910  -0.00002   0.00000  -0.00021  -0.00021   1.92889
   A46        1.92568   0.00003   0.00000   0.00020   0.00020   1.92588
   A47        1.93214   0.00001   0.00000   0.00010   0.00010   1.93224
   A48        1.86000  -0.00002   0.00000  -0.00021  -0.00021   1.85979
   A49        1.90911   0.00001   0.00000   0.00001   0.00001   1.90912
   A50        1.90631  -0.00000   0.00000   0.00009   0.00009   1.90640
    D1        0.01092  -0.00001   0.00000  -0.00057  -0.00057   0.01035
    D2        3.07691  -0.00001   0.00000  -0.00039  -0.00039   3.07652
    D3       -3.09252   0.00000   0.00000   0.00004   0.00004  -3.09248
    D4       -0.02653   0.00000   0.00000   0.00023   0.00023  -0.02631
    D5        0.00631  -0.00000   0.00000  -0.00011  -0.00011   0.00620
    D6       -3.13452  -0.00000   0.00000  -0.00006  -0.00006  -3.13459
    D7        3.10922  -0.00002   0.00000  -0.00073  -0.00073   3.10849
    D8       -0.03161  -0.00001   0.00000  -0.00068  -0.00068  -0.03229
    D9       -0.02510   0.00001   0.00000   0.00053   0.00053  -0.02457
   D10       -3.12619  -0.00000   0.00000  -0.00020  -0.00020  -3.12639
   D11       -3.08982   0.00001   0.00000   0.00034   0.00034  -3.08949
   D12        0.09227  -0.00001   0.00000  -0.00039  -0.00039   0.09188
   D13        0.95936   0.00000   0.00000   0.00013   0.00013   0.95949
   D14       -2.25858   0.00000   0.00000   0.00032   0.00032  -2.25826
   D15        0.02307   0.00000   0.00000   0.00016   0.00016   0.02322
   D16       -3.12365   0.00001   0.00000   0.00045   0.00045  -3.12320
   D17        3.12691   0.00001   0.00000   0.00082   0.00082   3.12773
   D18       -0.01980   0.00002   0.00000   0.00111   0.00111  -0.01869
   D19        3.12192  -0.00001   0.00000  -0.00058  -0.00058   3.12135
   D20       -0.09899   0.00002   0.00000   0.00095   0.00095  -0.09803
   D21        0.02081  -0.00002   0.00000  -0.00129  -0.00129   0.01952
   D22        3.08308   0.00001   0.00000   0.00024   0.00024   3.08332
   D23       -0.00662  -0.00002   0.00000  -0.00084  -0.00084  -0.00746
   D24        3.12807   0.00001   0.00000   0.00061   0.00061   3.12868
   D25        3.14008  -0.00002   0.00000  -0.00112  -0.00112   3.13895
   D26       -0.00841   0.00001   0.00000   0.00032   0.00032  -0.00810
   D27        0.00767  -0.00003   0.00000  -0.00140  -0.00140   0.00627
   D28       -3.13039   0.00001   0.00000   0.00022   0.00022  -3.13016
   D29       -3.13903  -0.00002   0.00000  -0.00111  -0.00111  -3.14014
   D30        0.00610   0.00001   0.00000   0.00051   0.00051   0.00661
   D31       -0.00840   0.00002   0.00000   0.00081   0.00081  -0.00759
   D32        3.13242   0.00001   0.00000   0.00076   0.00076   3.13318
   D33        3.14026  -0.00002   0.00000  -0.00067  -0.00067   3.13958
   D34       -0.00211  -0.00002   0.00000  -0.00072  -0.00072  -0.00283
   D35       -0.00983   0.00004   0.00000   0.00176   0.00176  -0.00807
   D36        3.09389   0.00000   0.00000   0.00019   0.00019   3.09408
   D37       -3.07346   0.00001   0.00000   0.00025   0.00025  -3.07321
   D38        0.03026  -0.00003   0.00000  -0.00132  -0.00132   0.02895
   D39        2.25535  -0.00002   0.00000  -0.00132  -0.00132   2.25403
   D40       -0.96496   0.00000   0.00000   0.00017   0.00017  -0.96479
   D41        0.00403   0.00004   0.00000   0.00181   0.00181   0.00584
   D42       -3.13378  -0.00000   0.00000  -0.00012  -0.00012  -3.13390
   D43       -3.14118   0.00000   0.00000   0.00015   0.00015  -3.14103
   D44        0.00420  -0.00004   0.00000  -0.00178  -0.00178   0.00242
   D45       -0.00297  -0.00004   0.00000  -0.00201  -0.00201  -0.00498
   D46       -3.10616  -0.00001   0.00000  -0.00043  -0.00043  -3.10659
   D47        3.13488  -0.00000   0.00000  -0.00011  -0.00011   3.13478
   D48        0.03169   0.00003   0.00000   0.00148   0.00148   0.03317
   D49        0.09012   0.00001   0.00000   0.00059   0.00059   0.09071
   D50       -3.05496  -0.00000   0.00000  -0.00039  -0.00039  -3.05535
   D51       -0.09118   0.00002   0.00000   0.00124   0.00124  -0.08994
   D52        3.05612  -0.00001   0.00000  -0.00109  -0.00109   3.05503
   D53        2.10023  -0.00003   0.00000   0.00000   0.00000   2.10023
   D54       -2.13113   0.00002   0.00000   0.00067   0.00067  -2.13046
   D55       -0.01271   0.00003   0.00000   0.00072   0.00072  -0.01199
   D56       -1.04470  -0.00004   0.00000  -0.00094  -0.00094  -1.04563
   D57        1.00713   0.00001   0.00000  -0.00027  -0.00027   1.00687
   D58        3.12555   0.00001   0.00000  -0.00022  -0.00022   3.12533
   D59        2.12638   0.00002   0.00000   0.00121   0.00121   2.12759
   D60       -2.10404   0.00000   0.00000   0.00095   0.00095  -2.10308
   D61        0.00827   0.00003   0.00000   0.00127   0.00127   0.00953
   D62       -1.00976  -0.00001   0.00000  -0.00102  -0.00102  -1.01078
   D63        1.04301  -0.00003   0.00000  -0.00128  -0.00128   1.04174
   D64       -3.12787  -0.00001   0.00000  -0.00096  -0.00096  -3.12883
         Item               Value     Threshold  Converged?
 Maximum Force            0.000522     0.000450     NO 
 RMS     Force            0.000113     0.000300     YES
 Maximum Displacement     0.001513     0.001800     YES
 RMS     Displacement     0.000543     0.001200     YES
 Predicted change in Energy=-2.998372D-06
 GradGradGradGradGradGradGradGradGradGradGradGradGradGradGradGradGradGrad

                          Input orientation:                          
 ---------------------------------------------------------------------
 Center     Atomic      Atomic             Coordinates (Angstroms)
 Number     Number       Type             X           Y           Z
 ---------------------------------------------------------------------
      1          6           0        0.887248    2.447785    0.105782
      2          6           0        0.149034    1.273550    0.191162
      3          6           0        0.818239    0.000007    0.129999
      4          6           0        2.245990    0.000273   -0.050815
      5          6           0        2.953221    1.230615   -0.134364
      6          6           0        2.287156    2.429156   -0.053026
      7          1           0        0.365801    3.395552    0.200860
      8          6           0        0.149872   -1.274000    0.190609
      9          6           0        2.953373   -1.229244   -0.140430
     10          1           0        4.032646    1.200867   -0.258781
     11          1           0        2.831355    3.368333   -0.109394
     12          6           0        2.287428   -2.428228   -0.063586
     13          6           0        0.887985   -2.447793    0.098698
     14          1           0        4.032626   -1.199266   -0.266108
     15          1           0        2.831471   -3.367178   -0.125232
     16          1           0        0.366974   -3.395943    0.191976
     17          7           0       -1.235249    1.349575    0.428484
     18          7           0       -1.233243   -1.352059    0.435209
     19          6           0       -1.975218    2.046414   -0.339764
     20          1           0       -1.569442    2.528683   -1.243273
     21          6           0       -1.976822   -2.043461   -0.334589
     22          1           0       -1.574957   -2.519054   -1.243358
     23          6           0       -3.432880    2.248101   -0.069031
     24          1           0       -3.654917    3.317748    0.047794
     25          1           0       -4.034788    1.894212   -0.916950
     26          1           0       -3.734588    1.716753    0.837273
     27          6           0       -3.432814   -2.248539   -0.058059
     28          1           0       -4.039226   -1.885762   -0.898991
     29          1           0       -3.654228   -3.319369    0.048632
     30          1           0       -3.730044   -1.726727    0.855275
 ---------------------------------------------------------------------
                    Distance matrix (angstroms):
                    1          2          3          4          5
     1  C    0.000000
     2  C    1.389632   0.000000
     3  C    2.448870   1.439961   0.000000
     4  C    2.803750   2.465160   1.439155   0.000000
     5  C    2.409858   2.823345   2.478393   1.421583   0.000000
     6  C    1.409011   2.442667   2.844641   2.429233   1.373593
     7  H    1.085915   2.133068   3.426289   3.889264   3.390291
     8  C    3.795076   2.547550   1.439958   2.464907   3.773257
     9  C    4.224930   3.773360   2.478505   1.421314   2.459866
    10  H    3.403122   3.910265   3.453350   2.162595   1.086979
    11  H    2.161774   3.416622   3.931357   3.419052   2.141335
    12  C    5.075893   4.282615   2.844700   2.428888   3.719600
    13  C    4.895582   3.795127   2.448993   2.803490   4.224950
    14  H    4.830392   4.626684   3.453612   2.162710   2.662103
    15  H    6.135728   5.369537   3.931434   3.418779   4.599413
    16  H    5.867475   4.674576   3.426362   3.888949   5.310387
    17  N    2.411471   1.406535   2.475327   3.764222   4.227793
    18  N    4.363922   2.977259   2.475846   3.764317   4.951878
    19  C    2.924606   2.321992   3.494547   4.699870   4.999723
    20  H    2.803894   2.566344   3.739131   4.729940   4.834163
    21  C    5.344915   3.974700   3.493418   4.699949   5.921570
    22  H    5.705446   4.406113   3.736196   4.729566   5.982832
    23  C    4.328272   3.721230   4.813061   6.107587   6.466980
    24  H    4.625090   4.320803   5.569856   6.770234   6.932301
    25  H    5.057555   4.372356   5.313754   6.617051   7.062936
    26  H    4.736123   3.961869   4.916878   6.285087   6.775485
    27  C    6.383199   5.029597   4.812771   6.107865   7.272673
    28  H    6.637721   5.358284   5.311300   6.616681   7.693554
    29  H    7.340867   5.964899   5.570263   6.770708   8.024601
    30  H    6.269583   4.948732   4.918791   6.286215   7.375045
                    6          7          8          9         10
     6  C    0.000000
     7  H    2.165638   0.000000
     8  C    4.282605   4.674553   0.000000
     9  C    3.719593   5.310438   2.823333   0.000000
    10  H    2.144239   4.298101   4.626321   2.661630   0.000000
    11  H    1.086915   2.485148   5.369508   4.599300   2.482604
    12  C    4.857395   6.138323   2.442541   1.373664   4.031652
    13  C    5.075956   5.867520   1.389621   2.409953   4.830052
    14  H    4.032060   5.897120   3.910237   1.086959   2.400144
    15  H    5.822282   7.205580   3.416449   2.141460   4.725218
    16  H    6.138314   6.791501   2.133021   3.390360   5.896693
    17  N    3.715466   2.607910   2.976288   4.951619   5.314618
    18  N    5.189332   5.015144   1.406745   4.227789   5.893101
    19  C    4.289120   2.755507   3.977744   5.921206   6.067614
    20  H    4.037319   2.565569   4.412760   5.982820   5.840865
    21  C    6.185879   5.946214   2.321795   5.000748   6.829723
    22  H    6.388864   6.390217   2.565434   4.835890   6.800912
    23  C    5.722924   3.977369   5.030777   7.271950   7.541007
    24  H    6.008993   4.024382   5.964978   8.023719   7.979586
    25  H    6.403086   4.782123   5.364292   7.693722   8.123879
    26  H    6.128749   4.476224   4.944877   7.373170   7.861132
    27  C    7.389107   6.808250   3.721182   6.467544   8.226285
    28  H    7.704368   6.964640   4.371501   7.064197   8.665579
    29  H    8.267764   7.827769   4.321443   6.932876   8.922727
    30  H    7.369062   6.591051   3.962384   6.775469   8.370859
                   11         12         13         14         15
    11  H    0.000000
    12  C    5.822206   0.000000
    13  C    6.135740   1.408958   0.000000
    14  H    4.725523   2.144080   3.403038   0.000000
    15  H    6.735529   1.086926   2.161609   2.482430   0.000000
    16  H    7.205514   2.165624   1.085883   4.297934   2.484994
    17  N    4.571867   5.188756   4.363128   5.893179   6.252405
    18  N    6.252972   3.715113   2.411116   5.314562   4.571291
    19  C    4.990360   6.186182   5.346781   6.828913   7.242738
    20  H    4.621440   6.390468   5.710091   6.799677   7.441722
    21  C    7.242707   4.290143   2.925464   6.068840   4.991567
    22  H    7.440617   4.039570   2.805757   5.843101   4.624513
    23  C    6.363741   7.388505   6.383527   8.225385   8.412883
    24  H    6.488374   8.266808   7.340436   8.921898   9.316190
    25  H    7.068883   7.705981   6.642156   8.664662   8.686458
    26  H    6.836338   7.365942   6.265550   8.369602   8.359779
    27  C    8.413780   5.723066   4.328230   7.541687   6.363736
    28  H    8.685267   6.404586   5.058524   8.125676   7.071052
    29  H    9.317356   6.009160   4.625349   7.980076   6.488206
    30  H    8.363144   6.127510   4.734821   7.860964   6.834175
                   16         17         18         19         20
    16  H    0.000000
    17  N    5.014279   0.000000
    18  N    2.607167   2.701643   0.000000
    19  C    5.948769   1.274105   3.563808   0.000000
    20  H    6.396158   2.072861   4.241520   1.101620   0.000000
    21  C    2.756784   3.555968   1.274181   4.089878   4.679334
    22  H    2.569088   4.228091   2.072736   4.671208   5.047740
    23  C    6.808983   2.425789   4.248978   1.496246   2.220355
    24  H    7.827518   3.142200   5.274627   2.141934   2.576565
    25  H    6.970722   3.153449   4.496138   2.144327   2.566510
    26  H    6.586264   2.559028   3.979446   2.142306   3.110589
    27  C    3.977114   4.244106   2.425923   4.544288   5.262959
    28  H    4.783874   4.482397   3.152534   4.476033   5.070078
    29  H    4.024485   5.272076   3.143393   5.635738   6.341535
    30  H    4.473455   3.983690   2.559461   4.329448   5.213504
                   21         22         23         24         25
    21  C    0.000000
    22  H    1.101611   0.000000
    23  C    4.539618   5.249447   0.000000
    24  H    5.630700   6.329421   1.098678   0.000000
    25  H    4.481030   5.063026   1.098407   1.761104   0.000000
    26  H    4.313028   5.189904   1.093045   1.786844   1.788550
    27  C    1.496140   2.220303   4.496653   5.571722   4.273458
    28  H    2.144045   2.567542   4.259732   5.302887   3.780019
    29  H    2.142076   2.575483   5.573110   6.637117   5.315881
[...]
 0.00000127,-0.00000146,0.00000491,-0.00000550,-0.00000257,-0.00000320,
 0.00000080,-0.00000320,0.00037259,-0.00004310,-0.00174113,0.00008557,-
 0.00006088,-0.00001477,0.00215981,-0.00221507,0.00143321,0.00074613,0.
 00031121,-0.00011383,-0.00005904,0.00007023,0.00006074,0.00001207,0.00
 001355,-0.00002074,0.04795064,-0.29483357,-0.02595938,-0.05572045,0.32
 003544,0.00012985,-0.00000585,0.00003030,-0.00039929,-0.00011605,0.000
 31374,0.00005791,0.00009660,-0.00007370,0.00003764,0.00005794,0.000009
 22,0.00008428,-0.00003528,-0.00000821,-0.00008393,-0.00003772,-0.00008
 450,-0.00000350,-0.00000956,0.00004426,0.00003496,0.00002892,0.0000248
 4,-0.00001469,-0.00002016,0.00000193,0.00000927,-0.00000588,0.00000608
 ,0.00001526,0.00001075,0.00000181,0.00001908,0.00000810,-0.00000657,-0
 .00004875,-0.00001441,0.00000152,0.00000808,-0.00000271,0.00000273,0.0
 0000191,-0.00000736,0.00000156,-0.00000247,-0.00000683,0.00000159,-0.0
 0002196,0.00019186,0.00014026,-0.00007348,-0.00009573,0.00001957,-0.00
 154089,-0.00491402,-0.00118798,-0.00013903,0.00059417,0.00009658,0.000
 08423,0.00000995,-0.00002371,-0.00002457,0.00001610,-0.00000931,0.0097
 6738,-0.02642984,-0.04986815,-0.00682777,0.03028855,0.04830377,0.00007
 030,-0.00008603,-0.00003455,0.00068464,0.00317850,0.00113981,-0.000785
 81,-0.00033399,0.00021512,-0.00000348,0.00023113,-0.00011460,-0.000132
 35,-0.00003255,0.00003582,0.00002749,0.00009513,-0.00006445,0.00005366
 ,0.00000689,0.00000921,-0.00019985,-0.00017577,0.00001367,-0.00003095,
 -0.00001442,0.00001247,-0.00002388,0.00000805,0.00000750,-0.00003332,-
 0.00002480,0.00002054,-0.00001179,0.00000464,0.00000796,0.00008004,0.0
 0008282,0.00001819,-0.00003112,0.00002862,-0.00000784,-0.00000140,0.00
 001771,-0.00000585,0.00000080,0.00002608,-0.00000838,-0.00486215,-0.00
 225268,0.00120124,0.00018305,0.00010372,0.00001413,-0.01715273,-0.0088
 7657,-0.02874070,0.00097036,0.00073491,0.00149685,-0.00016358,0.000007
 62,-0.00005739,-0.00000169,0.00002299,0.00002694,-0.12380690,-0.049356
 19,-0.10856145,0.00407407,0.00160769,0.00550649,0.13530484,-0.00011503
 ,0.00006367,0.00003525,0.00022630,-0.00100322,-0.00064279,0.00015666,0
 .00001850,0.00001135,0.00000486,-0.00003546,0.00002481,0.00000561,-0.0
 0000109,-0.00001196,-0.00001224,-0.00004714,0.00006101,-0.00000410,-0.
 00000484,-0.00002111,0.00014866,0.00000297,-0.00002770,-0.00000780,0.0
 0000223,-0.00000009,-0.00000618,0.00000141,-0.00000281,-0.00001828,-0.
 00000345,-0.00000120,0.00001105,-0.00000279,-0.00000171,-0.00003766,0.
 00000166,-0.00001182,-0.00000298,-0.00000406,0.00000213,-0.00000569,0.
 00000403,0.00000248,0.00000448,-0.00000397,0.00000407,0.00129729,0.000
 63660,-0.00013841,-0.00007870,0.00008883,-0.00003119,0.00526452,0.0008
 2690,0.00591691,-0.00034246,-0.00001055,0.00005955,0.00008703,-0.00001
 387,-0.00007530,0.00000173,-0.00003310,0.00002678,-0.04886417,-0.07156
 923,-0.06448385,-0.01842913,-0.01088541,-0.02587418,0.05019520,0.07586
 415,0.00003925,0.00001698,-0.00005510,-0.00046947,-0.00048078,0.000168
 02,0.00018445,-0.00005083,-0.00003178,-0.00000763,-0.00007902,0.000020
 59,-0.00001143,0.00000825,0.00000060,0.00001860,0.00004543,-0.00002562
 ,0.00001612,0.00001936,0.00001380,-0.00006925,0.00005960,0.00001026,0.
 00003451,0.00001504,-0.00000265,0.00000310,0.00000328,0.00000187,0.000
 00949,0.00000066,-0.00000230,-0.00001349,-0.00000087,0.00000408,0.0000
 3042,-0.00000668,0.00000761,0.00000560,-0.00000478,-0.00000311,0.00000
 214,-0.00000132,-0.00000176,-0.00000165,0.00000116,-0.00000579,0.00038
 449,-0.00112149,0.00019163,0.00003833,-0.00001640,0.00003428,0.0025416
 8,0.00482099,0.00727176,-0.00096172,0.00002397,0.00001706,-0.00010851,
 0.00002218,0.00002213,0.00001427,0.00001447,-0.00001382,-0.10660545,-0
 .06500345,-0.20601576,-0.00155296,-0.00127216,-0.00317934,0.12051323,0
 .07322973,0.21939167,0.00008209,0.00010668,-0.00015840,-0.00028042,0.0
 0015552,-0.00045064,0.00017167,-0.00014055,-0.00000060,-0.00006192,-0.
 00007159,0.00001850,0.00000902,0.00007438,-0.00000906,0.00007078,0.000
 02526,0.00004201,-0.00000185,0.00006338,0.00006453,-0.00008598,0.00006
 127,-0.00000984,0.00001619,0.00003152,-0.00000732,-0.00000222,0.000003
 95,0.00000306,0.00000745,0.00000192,0.00000132,-0.00005042,-0.00000546
 ,0.00000896,0.00005978,-0.00004160,-0.00000820,0.00000112,0.00000001,0
 .00000080,0.00000180,-0.00000075,-0.00000036,0.00000135,0.00000239,0.0
 0000208,0.00407787,-0.00091470,-0.00088583,0.00010607,0.00004311,-0.00
 006278,-0.00976890,-0.01898561,0.03158620,-0.00562739,0.00176141,0.000
 64466,-0.00000713,0.00009823,0.00006475,0.00000376,-0.00001314,-0.0000
 1300,-0.06959127,-0.03463283,0.05816552,0.00118398,0.00243706,-0.00654
 433,0.00566934,0.01061257,-0.01406146,0.07398484,0.00005046,0.00000194
 ,0.00009274,0.00027183,-0.00016167,-0.00026198,-0.00005673,0.00006622,
 0.00003057,0.00004376,0.00003536,0.00000754,-0.00000269,-0.00006203,-0
 .00000139,-0.00007467,0.00001115,0.00003534,0.00001168,-0.00002037,-0.
 00002223,0.00007280,-0.00002283,0.00000106,-0.00001091,-0.00001207,0.0
 0000372,-0.00000439,-0.00000119,-0.00000660,-0.00000808,-0.00000356,0.
 00000547,0.00002382,0.00000603,-0.00000702,-0.00004540,0.00002123,0.00
 000120,-0.00000394,-0.00000020,0.00000172,-0.00000439,0.00000364,0.000
 00116,0.00000254,-0.00000046,0.00000338,-0.00043837,0.00007365,-0.0009
 9560,-0.00010010,-0.00003915,-0.00001515,0.00149334,0.00205390,-0.0050
 2763,0.00127993,0.00143191,0.00053327,0.00007810,-0.00005721,-0.000039
 16,-0.00002253,-0.00000455,0.00001932,-0.03752149,-0.11591621,0.111547
 20,-0.00909157,-0.01272526,0.02630768,0.00477981,0.00616395,-0.0102240
 4,0.03932026,0.11922558,-0.00013560,0.00004470,0.00004129,-0.00032658,
 -0.00033335,0.00025520,0.00003130,0.00004761,-0.00003827,0.00000145,-0
 .00000353,-0.00001310,0.00002531,-0.00000414,0.00000230,-0.00003513,-0
 .00004469,-0.00003185,-0.00000327,-0.00003013,-0.00001845,0.00016958,0
 .00005457,0.00000945,-0.00002382,-0.00001065,0.00000585,0.00000326,-0.
 00000367,0.00000115,-0.00000140,0.00000204,0.00000119,0.00002232,-0.00
 000248,-0.00000477,-0.00006417,-0.00000080,-0.00000506,0.00000211,-0.0
 0000395,-0.00000040,-0.00000404,-0.00000168,0.00000215,0.00000152,-0.0
 0000992,0.00000296,-0.00140587,-0.00046274,0.00092605,-0.00022175,-0.0
 0006943,0.00001530,0.00188525,0.00283187,-0.00580803,0.00119167,0.0004
 8815,0.00111588,0.00020109,-0.00005506,-0.00007679,-0.00004458,-0.0000
 0454,0.00002583,0.06231904,0.11039568,-0.23868577,-0.00246504,-0.00270
 972,0.00542771,0.00734735,0.01193203,-0.01781716,-0.06838009,-0.121990
 81,0.25465349,0.00006793,-0.00009178,0.00001105,-0.00016555,0.00032906
 ,0.00009556,-0.00140932,-0.00004323,-0.00032049,0.00006547,-0.00029440
 ,-0.00020599,-0.00006613,0.00001054,0.00001670,-0.00000056,0.00001676,
 0.00000202,0.00000074,-0.00002585,-0.00000031,0.00538658,-0.00311966,0
 .00184525,-0.00016581,-0.00007610,0.00001011,-0.00003533,-0.00003021,0
 .00000393,-0.00000519,-0.00002000,-0.00000640,0.00020854,0.00012717,-0
 .00018460,-0.00047090,0.00033939,0.00033312,-0.00001821,-0.00000145,0.
 00004030,-0.00004344,0.00002678,0.,-0.00005400,0.00009433,0.00010197,0
 .00009304,0.00008707,0.00007387,-0.03369894,-0.01404173,-0.00901049,-0
 .00005045,0.00009038,0.00000788,-0.00000585,-0.00002535,0.00000848,-0.
 21653957,-0.01098350,0.03872350,-0.00692923,-0.00297540,0.00091955,0.0
 0014469,-0.00006349,0.00002171,0.00000090,-0.00002205,-0.00001032,-0.0
 0003083,-0.00001847,-0.00001975,-0.00004389,0.00002703,0.00000765,0.50
 305744,0.00012320,-0.00003412,-0.00003790,0.00039217,-0.00001675,-0.00
 031592,0.00143716,0.00021480,0.00021430,-0.00016341,0.00051225,0.00041
 202,0.00005759,-0.00011088,-0.00002444,-0.00006951,0.00005105,-0.00000
 173,0.00000975,-0.00000911,0.00000504,-0.00323205,0.01264997,-0.007262
 54,-0.00005333,-0.00019238,-0.00005921,-0.00000843,0.00001947,0.000013
 72,-0.00001279,-0.00001864,0.00000651,0.00002552,0.00082796,0.00062868
 ,-0.00274186,-0.00139619,0.00002776,-0.00003289,-0.00001828,-0.0000586
 8,-0.00026241,0.00002418,0.00001770,-0.00001753,0.00026008,-0.00027912
 ,0.00001105,-0.00059227,-0.00008792,-0.02541371,-0.01037018,0.00196588
 ,-0.00017394,0.00021768,-0.00004187,0.00006002,0.00010667,0.00014984,-
 0.00832320,-0.07947921,-0.00324364,0.01260910,0.00726946,-0.00470247,0
 .00006079,-0.00026165,0.00000984,0.00004793,-0.00005216,-0.00001777,-0
 .00000257,0.00004682,-0.00006884,-0.00001087,0.00002633,0.00004599,-0.
 00788517,0.55239025,0.00004770,-0.00016010,0.00003504,-0.00042878,0.00
 048971,0.00009633,-0.00256099,0.00018593,0.00021481,0.00014682,-0.0007
 5589,-0.00029553,-0.00014209,0.00011868,0.00003879,0.00006885,-0.00001
 435,0.00000365,-0.00000319,-0.00004026,-0.00000763,0.00190002,-0.00975
 353,0.00368621,-0.00023112,0.00021303,0.00005589,-0.00005891,-0.000064
 61,-0.00001448,0.00000043,-0.00002364,-0.00000760,-0.00005840,-0.00024
 501,-0.00016862,0.00053236,0.00068444,0.00035176,-0.00002625,0.0000058
 1,0.00001774,-0.00001133,0.00003687,0.00002377,0.00004496,0.00015472,-
 0.00010130,0.00037975,0.00016431,-0.00005647,-0.02916610,-0.00030336,0
 .00629856,-0.00008005,-0.00001162,-0.00000659,0.00002396,-0.00004467,-
 0.00006271,0.04382321,-0.00308637,-0.09796381,0.02467848,0.00196579,-0
 .00084270,0.00001752,-0.00002124,0.00034465,0.00002449,0.00002914,-0.0
 0007527,-0.00001574,0.00003448,-0.00004591,0.00004180,-0.00010935,-0.0
 0016116,0.00283678,0.03180690,0.58322091,0.00008093,-0.00008215,0.0000
 1826,-0.00020097,0.00017552,0.00001289,-0.00078413,0.00033548,0.000218
 64,-0.00000442,-0.00023077,-0.00011432,-0.00003130,0.00001429,0.000012
 36,-0.00001238,-0.00000464,0.00000783,0.00000087,-0.00002604,-0.000008
 54,0.00069145,-0.00319131,0.00111745,-0.00013172,0.00002925,0.00003604
 ,-0.00003109,-0.00002873,-0.00000789,-0.00000127,-0.00001760,-0.000005
 89,0.00003009,-0.00009295,-0.00006521,0.00006841,0.00008597,-0.0000329
 7,-0.00002381,-0.00000807,0.00000750,-0.00003316,0.00002457,0.00002056
 ,0.00005346,-0.00000695,0.00000919,0.00018509,-0.00010642,0.00001577,-
 0.00482979,0.00226044,0.00124791,-0.00016744,-0.00001052,-0.00005421,-
 0.00000069,-0.00002257,0.00002680,-0.01732052,0.00915785,-0.02851576,0
 .00097050,-0.00074950,0.00148762,-0.00003099,0.00000441,-0.00001576,0.
 00003974,0.00002944,0.00000837,0.00009963,-0.00004788,0.00003910,0.000
 01561,-0.00000875,-0.00002359,-0.12487176,0.05093165,-0.10837987,0.136
 50971,0.00003834,0.00000200,0.00001203,-0.00015089,0.00000456,0.000026
 78,-0.00016003,0.00001862,-0.00001005,-0.00000493,-0.00003615,-0.00002
 512,0.00000769,0.00000227,0.,-0.00001124,-0.00000282,0.00000184,-0.000
 00453,-0.00000416,-0.00000395,-0.00021403,-0.00101641,0.00063493,-0.00
 000584,-0.00000129,0.00001183,0.00000290,-0.00000418,-0.00000214,0.000
 00572,0.00000404,-0.00000249,0.00001246,-0.00004684,-0.00006038,0.0001
 1510,0.00006410,-0.00003495,0.00000613,0.00000142,0.00000284,0.0000182
 2,-0.00000341,0.00000126,0.00000406,-0.00000486,0.00002070,0.00008046,
 0.00009381,0.00003044,-0.00129504,0.00061606,0.00015020,-0.00008817,-0
 .00001521,0.00007561,-0.00000058,-0.00003294,-0.00002854,-0.00530960,0
 .00094944,-0.00594579,0.00035147,-0.00000819,-0.00006240,0.00002089,0.
 00004572,-0.00002793,0.00003083,0.00003821,0.00000837,0.00004518,-0.00
 011126,0.00006106,-0.00000445,-0.00003292,-0.00005897,0.05039973,-0.07
 305363,0.06569744,-0.05194354,0.07753846,0.00003047,0.00000732,0.00000
 775,-0.00007105,-0.00006002,0.00001006,0.00018630,0.00004930,-0.000033
 63,-0.00000740,0.00007986,0.00002095,0.00003502,-0.00001496,-0.0000026
 6,-0.00001352,0.00000070,0.00000410,-0.00000166,-0.00000114,-0.0000057
 1,-0.00047416,0.00048260,0.00017301,-0.00001121,-0.00000836,0.00000040
 ,0.00000574,0.00000490,-0.00000309,0.00000220,0.00000142,-0.00000178,0
 .00001880,-0.00004583,-0.00002562,0.00004035,-0.00001562,-0.00005629,0
 .00000324,-0.00000325,0.00000183,0.00000994,-0.00000078,-0.00000230,0.
 00001579,-0.00001936,0.00001407,0.00003841,0.00001788,0.00003551,0.000
 39752,0.00111094,0.00019929,-0.00010967,-0.00002446,0.00002254,0.00001
 565,-0.00001432,-0.00001515,0.00260287,-0.00493284,0.00729276,-0.00096
 339,-0.00001791,0.00000888,-0.00001816,0.00007118,-0.00003719,0.000029
 53,0.00003769,0.00000476,0.00003668,-0.00006099,0.00010390,-0.00002100
 ,-0.00002887,-0.00007250,-0.10639837,0.06620962,-0.20348370,0.12030229
 ,-0.07453504,0.21655666,0.00008542,-0.00004410,-0.00000784,0.00003798,
 0.00003863,-0.00010148,0.00027185,0.00024487,0.00018913,-0.00007342,0.
 00014743,0.00009529,0.00002599,-0.00003966,-0.00000626,-0.00003048,0.0
 0001817,0.00000159,0.00000465,-0.00001281,-0.00000083,-0.00104932,0.00
 289916,-0.00188401,-0.00010102,-0.00005520,-0.00000635,-0.00001410,-0.
 00000222,0.00000087,-0.00000450,-0.00001395,0.00000068,0.00005661,0.00
 021086,0.00019944,-0.00088579,-0.00060031,-0.00016610,-0.00001888,-0.0
 0000787,-0.00001928,-0.00010592,0.00001916,0.00002538,-0.00000902,0.00
 006756,-0.00006007,0.00010518,-0.00031794,-0.00002914,-0.00354661,-0.0
 0153747,0.00245567,-0.00021796,0.00005504,-0.00001831,0.00003965,0.000
 03617,0.00004948,-0.00625283,-0.03544078,0.00067228,0.00057895,0.00186
 864,-0.00030107,0.00000086,-0.00004890,0.00002642,0.00005396,0.0000190
 0,-0.00001718,0.00003865,-0.00003027,0.00002903,0.00000436,-0.00002841
 ,-0.00005882,-0.05549548,-0.05077439,0.00897700,0.00410473,0.01857046,
 -0.00138729,0.06125857,-0.00003235,-0.00001852,-0.00000910,0.00011623,
 0.00000558,-0.00000762,-0.00000649,0.00005130,0.00003790,-0.00001179,-
 0.00002121,0.00000686,-0.00001712,0.00000368,0.00000320,0.00001428,0.0
 0000271,-0.00000469,0.00000327,0.00000079,0.00000305,-0.00013258,0.000
 39414,0.00001369,0.00000051,0.00000633,0.00000863,-0.00000755,-0.00000
 132,0.00000140,-0.00000492,-0.00000564,0.00000254,-0.00000610,0.000047
 83,-0.00000250,-0.00024995,-0.00009859,-0.00010432,-0.00000911,-0.0000
 0190,-0.00000796,-0.00002635,0.00000427,0.00001287,0.00000880,-0.00002
 315,-0.00000359,-0.00008297,-0.00006339,0.00002034,-0.00037708,-0.0000
 6356,0.00173703,0.00005826,0.00007151,-0.00006015,-0.00001256,0.000013
 12,0.00002121,-0.00212431,-0.00223450,-0.00143834,-0.00074388,0.000320
 38,0.00011999,0.00002179,-0.00005146,-0.00003159,-0.00001875,-0.000038
 70,0.00001145,-0.00002827,0.00003796,-0.00003669,-0.00001273,0.0000378
 3,0.00005836,-0.04807326,-0.29538926,0.02348854,-0.00167048,-0.0111910
 3,0.00119533,0.05578487,0.32066495,-0.00004907,0.00001441,0.00000149,0
 .00003436,-0.00002955,0.00002582,0.00005605,-0.00009635,-0.00007540,0.
 00003806,-0.00005835,0.00000810,-0.00001466,0.00002023,0.00000208,0.00
 001933,-0.00000801,-0.00000651,-0.00000257,0.00000690,0.00000150,-0.00
 039971,0.00009970,0.00033181,0.00008445,0.00003648,-0.00000796,0.00000
 816,0.00000273,0.00000274,0.00000192,0.00000742,0.00000157,-0.00008495
 ,0.00003626,-0.00008599,0.00013444,0.00000681,0.00002776,0.00000939,0.
 00000591,0.00000624,0.00001572,-0.00001082,0.00000180,-0.00000341,0.00
 000907,0.00004494,-0.00007317,0.00009801,0.00002181,0.00000581,-0.0001
 8712,0.00014884,0.00008405,-0.00001207,-0.00002359,-0.00002464,-0.0000
 1624,-0.00001028,-0.00154707,0.00509183,-0.00115053,-0.00015143,-0.000
 59720,0.00009369,-0.00000980,0.00002153,-0.00007614,-0.00001724,-0.000
 01122,0.00003659,0.00000839,-0.00000948,0.00000691,-0.00001340,0.00003
 639,0.00004641,0.00930045,0.02395750,-0.04946837,0.00546668,0.02568979
 ,-0.00290531,-0.00630949,-0.02756806,0.04777850,0.00005861,0.00004179,
 -0.00000812,-0.00008202,-0.00006219,-0.00001093,0.00017397,0.00014109,
 -0.00000057,-0.00006222,0.00007158,0.00001950,0.00001570,-0.00003116,-
 0.00000745,-0.00005004,0.00000538,0.00000877,0.00000135,-0.00000230,0.
 00000224,-0.00028712,-0.00014437,-0.00045217,0.00000972,-0.00007454,-0
 .00000930,0.00000116,0.00000003,0.00000085,0.00000172,0.00000077,-0.00
 000029,0.00007033,-0.00002397,0.00004212,0.00007893,-0.00010842,-0.000
 15907,-0.00000216,-0.00000386,0.00000285,0.00000731,-0.00000197,0.0000
 0117,-0.00000184,-0.00006217,0.00006415,0.00010096,-0.00004336,-0.0000
 7016,0.00407335,0.00093252,-0.00090026,-0.00000651,-0.00009599,0.00006
 363,0.00000377,0.00001379,-0.00001215,-0.00958738,0.01864697,0.0318091
 2,-0.00562054,-0.00176910,0.00066681,-0.00004358,0.00000898,0.00003824
 ,0.00000419,0.00001218,-0.00001254,0.00001495,0.00000507,-0.00002104,0
 .00005435,-0.00003292,-0.00001515,-0.06892488,0.03341217,0.05761869,0.
 00562525,-0.01051676,-0.01429393,0.00113790,-0.00235942,-0.00656664,0.
 07323477,0.00004549,0.00002125,-0.00000101,-0.00007389,-0.00002219,-0.
 00000194,0.00005574,0.00006740,-0.00002989,-0.00004406,0.00003524,-0.0
 0000721,0.00001113,-0.00001188,-0.00000392,-0.00002382,0.00000578,0.00
 000713,-0.00000253,-0.00000064,-0.00000330,-0.00026657,-0.00016898,0.0
 0025984,0.00000221,-0.00006183,0.00000111,0.00000385,-0.00000025,-0.00
 000170,0.00000435,0.00000357,-0.00000115,0.00007483,0.00001023,-0.0000
 3444,-0.00004783,0.00000333,-0.00009292,0.00000427,-0.00000127,0.00000
 649,0.00000808,-0.00000344,-0.00000554,-0.00001119,-0.00002052,0.00002
 187,0.00009768,-0.00003972,0.00001074,0.00045637,0.00006432,0.00098986
 ,-0.00007676,-0.00005683,0.00003856,0.00002325,-0.00000383,-0.00001926
 ,-0.00145036,0.00202250,0.00510263,-0.00129052,0.00144395,-0.00052626,
 -0.00002721,0.00001968,0.00011283,0.00002769,0.00003807,-0.00003706,0.
 00000713,-0.00003024,0.00002521,0.00003536,-0.00009902,-0.00010076,0.0
 3624287,-0.11362223,-0.11044179,-0.00480001,0.00618658,0.01051503,0.00
 897427,-0.01246015,-0.02653648,-0.03795984,0.11668114,-0.00006330,0.00
 000072,-0.00000505,0.00016792,-0.00005531,0.00001104,0.00003015,-0.000
 04698,-0.00003953,0.00000157,0.00000378,-0.00001366,-0.00002358,0.0000
 1039,0.00000587,0.00002199,0.00000267,-0.00000475,0.00000143,0.0000099
 6,0.00000282,-0.00032984,0.00032505,0.00026841,0.00002516,0.00000425,0
 .00000248,0.00000223,0.00000396,-0.00000042,-0.00000394,0.00000177,0.0
 0000209,-0.00003499,0.00004384,-0.00003256,-0.00013326,-0.00004304,0.0
 0004052,0.00000341,0.00000367,0.00000128,-0.00000105,-0.00000212,0.000
 00107,-0.00000348,0.00002976,-0.00001825,-0.00021788,0.00007030,0.0000
 1944,-0.00140408,0.00045879,0.00093608,0.00019789,0.00005361,-0.000073
 62,-0.00004542,0.00000361,0.00002557,0.00186928,-0.00285261,-0.0059504
 2,0.00120896,-0.00047260,0.00109627,0.00000832,-0.00004065,-0.00016996
 ,-0.00005737,-0.00005781,0.00004791,-0.00002064,0.00005404,-0.00006606
 ,-0.00001790,0.00010205,0.00020110,0.06179682,-0.10926928,-0.24162627,
 0.00716873,-0.01162737,-0.01781155,-0.00234873,0.00253221,0.00522148,-
 0.06779838,0.12075333,0.25792866\\-0.00001094,0.00000715,0.00000485,-0
 .00000780,0.00000981,0.00000217,0.00001269,-0.00002029,0.00000046,-0.0
 0000287,0.00000720,0.00000202,0.00001148,-0.00000305,0.00000063,0.0000
 0345,-0.00001126,0.00000558,0.00000275,-0.00000645,0.00000398,-0.00000
 354,-0.00000317,-0.00000605,-0.00000428,0.00000723,-0.00000048,-0.0000
 0648,-0.00000050,0.00000433,-0.00000058,0.00000347,0.00000711,-0.00001
 319,-0.00001067,-0.00000089,0.00001906,0.00001185,-0.00000271,0.000005
 08,0.00000031,0.00000116,0.00000096,0.00000105,-0.00000548,-0.00000278
 ,-0.00000312,-0.00000311,0.00000347,0.00000041,-0.00000242,-0.00001248
 ,0.00000047,0.00000145,0.00000070,-0.00000138,0.00001016,0.00000246,0.
 00000271,0.00000155,0.00000738,0.00001515,-0.00000974,-0.00000191,-0.0
 0000148,-0.00000274,-0.00000113,0.00000493,0.00000204,0.00000177,-0.00
 000512,0.00000434,-0.00000035,0.00000018,-0.00000064,0.00000040,0.0000
 0067,-0.00000019,0.00000161,-0.00001061,-0.00000240,-0.00000044,0.0000
 0134,-0.00000613,-0.00000342,0.00000300,-0.00000683,-0.00000106,0.0000
 0016,-0.00000201\\\@
 The archive entry for this job was punched.


 WHEN ALL ELSE FAILS, TRY THE BOSS'S SUGGESTION.
 Job cpu time:       0 days  1 hours 17 minutes 38.9 seconds.
 Elapsed time:       0 days  0 hours  9 minutes 43.8 seconds.
 File lengths (MBytes):  RWF=    351 Int=      0 D2E=      0 Chk=     15 Scr=      1
 Normal termination of Gaussian 16 at Thu Nov 18 12:37:10 2021.
