 Entering Gaussian System, Link 0=/home/rong/g16/g16
 Input=/home/rong/gdata/080322/Y8B1-2.gjf
 Output=/home/rong/gdata/080322/Y8B1-2.log
 Initial command:
 /home/rong/g16/l1.exe "/home/rong//tmp/Gau-716159.inp" -scrdir="/home/rong//tmp/"
 Entering Link 1 = /home/rong/g16/l1.exe PID=    716161.
  
 Copyright (c) 1988-2019, Gaussian, Inc.  All Rights Reserved.
  
 This is part of the Gaussian(R) 16 program.  It is based on
 the Gaussian(R) 09 system (copyright 2009, Gaussian, Inc.),
 the Gaussian(R) 03 system (copyright 2003, Gaussian, Inc.),
 the Gaussian(R) 98 system (copyright 1998, Gaussian, Inc.),
 the Gaussian(R) 94 system (copyright 1995, Gaussian, Inc.),
 the Gaussian 92(TM) system (copyright 1992, Gaussian, Inc.),
 the Gaussian 90(TM) system (copyright 1990, Gaussian, Inc.),
 the Gaussian 88(TM) system (copyright 1988, Gaussian, Inc.),
 the Gaussian 86(TM) system (copyright 1986, Carnegie Mellon
 University), and the Gaussian 82(TM) system (copyright 1983,
 Carnegie Mellon University). Gaussian is a federally registered
 trademark of Gaussian, Inc.
  
 This software contains proprietary and confidential information,
 including trade secrets, belonging to Gaussian, Inc.
  
 This software is provided under written license and may be
 used, copied, transmitted, or stored only in accord with that
 written license.
  
 The following legend is applicable only to US Government
 contracts under FAR:
  
                    RESTRICTED RIGHTS LEGEND
  
 Use, reproduction and disclosure by the US Government is
 subject to restrictions as set forth in subparagraphs (a)
 and (c) of the Commercial Computer Software - Restricted
 Rights clause in FAR 52.227-19.
  
 Gaussian, Inc.
 340 Quinnipiac St., Bldg. 40, Wallingford CT 06492
  
  
 ---------------------------------------------------------------
 Warning -- This program may not be used in any manner that
 competes with the business of Gaussian, Inc. or will provide
 assistance to any competitor of Gaussian, Inc.  The licensee
 of this program is prohibited from giving any competitor of
 Gaussian, Inc. access to this program.  By using this program,
 the user acknowledges that Gaussian, Inc. is engaged in the
 business of creating and licensing software in the field of
 computational chemistry and represents and warrants to the
 licensee that it is not a competitor of Gaussian, Inc. and that
 it will not use this program in any manner prohibited above.
 ---------------------------------------------------------------
  

 Cite this work as:
 Gaussian 16, Revision C.01,
 M. J. Frisch, G. W. Trucks, H. B. Schlegel, G. E. Scuseria, 
 M. A. Robb, J. R. Cheeseman, G. Scalmani, V. Barone, 
 G. A. Petersson, H. Nakatsuji, X. Li, M. Caricato, A. V. Marenich, 
 J. Bloino, B. G. Janesko, R. Gomperts, B. Mennucci, H. P. Hratchian, 
 J. V. Ortiz, A. F. Izmaylov, J. L. Sonnenberg, D. Williams-Young, 
 F. Ding, F. Lipparini, F. Egidi, J. Goings, B. Peng, A. Petrone, 
 T. Henderson, D. Ranasinghe, V. G. Zakrzewski, J. Gao, N. Rega, 
 G. Zheng, W. Liang, M. Hada, M. Ehara, K. Toyota, R. Fukuda, 
 J. Hasegawa, M. Ishida, T. Nakajima, Y. Honda, O. Kitao, H. Nakai, 
 T. Vreven, K. Throssell, J. A. Montgomery, Jr., J. E. Peralta, 
 F. Ogliaro, M. J. Bearpark, J. J. Heyd, E. N. Brothers, K. N. Kudin, 
 V. N. Staroverov, T. A. Keith, R. Kobayashi, J. Normand, 
 K. Raghavachari, A. P. Rendell, J. C. Burant, S. S. Iyengar, 
 J. Tomasi, M. Cossi, J. M. Millam, M. Klene, C. Adamo, R. Cammi, 
 J. W. Ochterski, R. L. Martin, K. Morokuma, O. Farkas, 
 J. B. Foresman, and D. J. Fox, Gaussian, Inc., Wallingford CT, 2019.
 
 ******************************************
 Gaussian 16:  ES64L-G16RevC.01  3-Jul-2019
                12-Sep-2022 
 ******************************************
 %chk=/home/rong/gdata/080322/Y8B1-2.chk
 %mem=200GB
 %nprocshared=64
 Will use up to   64 processors via shared memory.
 ----------------------------------------------------
 # opt freq b3lyp/6-31g(d) scrf=(smd,solvent=toluene)
 ----------------------------------------------------
 1/18=20,19=15,26=3,38=1/1,3;
 2/9=110,12=2,17=6,18=5,40=1/2;
 3/5=1,6=6,7=1,11=2,25=1,30=1,70=32201,71=1,72=13,74=-5/1,2,3;
 4//1;
 5/5=2,38=5,53=13/2;
 6/7=2,8=2,9=2,10=2,28=1/1;
 7//1,2,3,16;
 1/18=20,19=15,26=3/3(2);
 2/9=110/2;
 99//99;
 2/9=110/2;
 3/5=1,6=6,7=1,11=2,25=1,30=1,70=32205,71=1,72=13,74=-5/1,2,3;
 4/5=5,16=3,69=1/1;
 5/5=2,38=5,53=13/2;
 7//1,2,3,16;
 1/18=20,19=15,26=3/3(-5);
 2/9=110/2;
 6/7=2,8=2,9=2,10=2,19=2,28=1/1;
 99/9=1/99;
 --------------
 biphenMeCHNCH2
 --------------
 Symbolic Z-matrix:
 Charge =  0 Multiplicity = 1
 C                    -1.70164  -0.48862   0.35039 
 C                    -2.51623  -1.63359   0.31159 
 C                    -2.13731  -2.76012  -0.4149 
 C                    -0.93378  -2.75883  -1.12009 
 C                    -0.11457  -1.63145  -1.07615 
 C                    -0.46602  -0.48864  -0.34368 
 H                    -3.43802  -1.63802   0.88656 
 H                    -2.78222  -3.63516  -0.42685 
 H                    -0.62998  -3.62939  -1.69494 
 C                     0.43187   0.7014   -0.32532 
 C                     1.7811    0.60325   0.09741 
 C                    -0.03836   1.94855  -0.76041 
 C                     2.5894    1.75319   0.10579 
 C                     0.77536   3.08092  -0.76595 
 C                     2.09387   2.98274  -0.32147 
 H                     3.60321   1.67848   0.48907 
 H                     0.37782   4.03356  -1.1054 
 H                     2.73471   3.8605   -0.29948 
 H                     0.82084  -1.62792  -1.62727 
 H                    -1.06291   2.02534  -1.11204 
 N                     2.2595   -0.62928   0.59049 
 C                     3.42975  -1.03283   0.28146 
 H                     4.06503  -0.47682  -0.42599 
 C                     4.00912  -2.28905   0.85067 
 H                     4.28397  -2.98551   0.04691 
 H                     4.93298  -2.06754   1.40266 
 H                     3.29601  -2.77373   1.5225 
 N                    -2.02977   0.59331   1.19392 
 C                    -3.12711   1.23847   1.11046 
 H                    -3.58702   0.79132   0.22262 
 C                    -3.92457   2.34458   1.747 
 H                    -4.96238   2.01219   1.87932 
 H                    -3.52095   2.65905   2.71195 
 H                    -3.96136   3.21806   1.08161 
 

 GradGradGradGradGradGradGradGradGradGradGradGradGradGradGradGradGradGrad
 Berny optimization.
 Initialization pass.
                           ----------------------------
                           !    Initial Parameters    !
                           ! (Angstroms and Degrees)  !
 --------------------------                            --------------------------
 ! Name  Definition              Value          Derivative Info.                !
 --------------------------------------------------------------------------------
 ! R1    R(1,2)                  1.4057         estimate D2E/DX2                !
 ! R2    R(1,6)                  1.4172         estimate D2E/DX2                !
 ! R3    R(1,28)                 1.4106         estimate D2E/DX2                !
 ! R4    R(2,3)                  1.393          estimate D2E/DX2                !
 ! R5    R(2,7)                  1.0864         estimate D2E/DX2                !
 ! R6    R(3,4)                  1.3949         estimate D2E/DX2                !
 ! R7    R(3,8)                  1.0871         estimate D2E/DX2                !
 ! R8    R(4,5)                  1.3943         estimate D2E/DX2                !
 ! R9    R(4,9)                  1.0866         estimate D2E/DX2                !
 ! R10   R(5,6)                  1.4022         estimate D2E/DX2                !
 ! R11   R(5,19)                 1.0857         estimate D2E/DX2                !
 ! R12   R(6,10)                 1.4909         estimate D2E/DX2                !
 ! R13   R(10,11)                1.4173         estimate D2E/DX2                !
 ! R14   R(10,12)                1.4021         estimate D2E/DX2                !
 ! R15   R(11,13)                1.4056         estimate D2E/DX2                !
 ! R16   R(11,21)                1.4111         estimate D2E/DX2                !
 ! R17   R(12,14)                1.3944         estimate D2E/DX2                !
 ! R18   R(12,20)                1.0859         estimate D2E/DX2                !
 ! R19   R(13,15)                1.3928         estimate D2E/DX2                !
 ! R20   R(13,16)                1.0864         estimate D2E/DX2                !
 ! R21   R(14,15)                1.3949         estimate D2E/DX2                !
 ! R22   R(14,17)                1.0866         estimate D2E/DX2                !
 ! R23   R(15,18)                1.087          estimate D2E/DX2                !
 ! R24   R(21,22)                1.2759         estimate D2E/DX2                !
 ! R25   R(22,23)                1.1015         estimate D2E/DX2                !
 ! R26   R(22,24)                1.4959         estimate D2E/DX2                !
 ! R27   R(24,25)                1.0985         estimate D2E/DX2                !
 ! R28   R(24,26)                1.0988         estimate D2E/DX2                !
 ! R29   R(24,27)                1.0931         estimate D2E/DX2                !
 ! R30   R(28,29)                1.2757         estimate D2E/DX2                !
 ! R31   R(29,30)                1.0953         estimate D2E/DX2                !
 ! R32   R(29,31)                1.5049         estimate D2E/DX2                !
 ! R33   R(31,32)                1.0977         estimate D2E/DX2                !
 ! R34   R(31,33)                1.0922         estimate D2E/DX2                !
 ! R35   R(31,34)                1.0987         estimate D2E/DX2                !
 ! A1    A(2,1,6)              119.4529         estimate D2E/DX2                !
 ! A2    A(2,1,28)             120.4269         estimate D2E/DX2                !
 ! A3    A(6,1,28)             119.715          estimate D2E/DX2                !
 ! A4    A(1,2,3)              121.0287         estimate D2E/DX2                !
 ! A5    A(1,2,7)              118.7108         estimate D2E/DX2                !
 ! A6    A(3,2,7)              120.2328         estimate D2E/DX2                !
 ! A7    A(2,3,4)              119.8416         estimate D2E/DX2                !
 ! A8    A(2,3,8)              119.6907         estimate D2E/DX2                !
 ! A9    A(4,3,8)              120.4676         estimate D2E/DX2                !
 ! A10   A(3,4,5)              119.4563         estimate D2E/DX2                !
 ! A11   A(3,4,9)              120.5273         estimate D2E/DX2                !
 ! A12   A(5,4,9)              120.0152         estimate D2E/DX2                !
 ! A13   A(4,5,6)              121.8845         estimate D2E/DX2                !
 ! A14   A(4,5,19)             119.5281         estimate D2E/DX2                !
 ! A15   A(6,5,19)             118.5862         estimate D2E/DX2                !
 ! A16   A(1,6,5)              118.319          estimate D2E/DX2                !
 ! A17   A(1,6,10)             121.2683         estimate D2E/DX2                !
 ! A18   A(5,6,10)             120.4007         estimate D2E/DX2                !
 ! A19   A(6,10,11)            121.4479         estimate D2E/DX2                !
 ! A20   A(6,10,12)            120.2786         estimate D2E/DX2                !
 ! A21   A(11,10,12)           118.2571         estimate D2E/DX2                !
 ! A22   A(10,11,13)           119.5084         estimate D2E/DX2                !
 ! A23   A(10,11,21)           119.1737         estimate D2E/DX2                !
 ! A24   A(13,11,21)           121.1677         estimate D2E/DX2                !
 ! A25   A(10,12,14)           121.8611         estimate D2E/DX2                !
 ! A26   A(10,12,20)           118.6729         estimate D2E/DX2                !
 ! A27   A(14,12,20)           119.4625         estimate D2E/DX2                !
 ! A28   A(11,13,15)           121.0506         estimate D2E/DX2                !
 ! A29   A(11,13,16)           118.8465         estimate D2E/DX2                !
 ! A30   A(15,13,16)           120.0613         estimate D2E/DX2                !
 ! A31   A(12,14,15)           119.5495         estimate D2E/DX2                !
 ! A32   A(12,14,17)           119.9792         estimate D2E/DX2                !
 ! A33   A(15,14,17)           120.4682         estimate D2E/DX2                !
 ! A34   A(13,15,14)           119.7479         estimate D2E/DX2                !
 ! A35   A(13,15,18)           119.7949         estimate D2E/DX2                !
 ! A36   A(14,15,18)           120.4557         estimate D2E/DX2                !
 ! A37   A(11,21,22)           120.1723         estimate D2E/DX2                !
 ! A38   A(21,22,23)           121.6634         estimate D2E/DX2                !
 ! A39   A(21,22,24)           121.9168         estimate D2E/DX2                !
 ! A40   A(23,22,24)           116.4184         estimate D2E/DX2                !
 ! A41   A(22,24,25)           110.5433         estimate D2E/DX2                !
 ! A42   A(22,24,26)           110.3356         estimate D2E/DX2                !
 ! A43   A(22,24,27)           110.7056         estimate D2E/DX2                !
 ! A44   A(25,24,26)           106.5603         estimate D2E/DX2                !
 ! A45   A(25,24,27)           109.3798         estimate D2E/DX2                !
 ! A46   A(26,24,27)           109.2183         estimate D2E/DX2                !
 ! A47   A(1,28,29)            123.2903         estimate D2E/DX2                !
 ! A48   A(28,29,30)           101.991          estimate D2E/DX2                !
 ! A49   A(28,29,31)           143.1206         estimate D2E/DX2                !
 ! A50   A(30,29,31)           114.861          estimate D2E/DX2                !
 ! A51   A(29,31,32)           109.2331         estimate D2E/DX2                !
 ! A52   A(29,31,33)           112.9234         estimate D2E/DX2                !
 ! A53   A(29,31,34)           110.2391         estimate D2E/DX2                !
 ! A54   A(32,31,33)           109.2724         estimate D2E/DX2                !
 ! A55   A(32,31,34)           106.3843         estimate D2E/DX2                !
 ! A56   A(33,31,34)           108.5743         estimate D2E/DX2                !
 ! D1    D(6,1,2,3)             -0.9899         estimate D2E/DX2                !
 ! D2    D(6,1,2,7)            177.1002         estimate D2E/DX2                !
 ! D3    D(28,1,2,3)          -173.6637         estimate D2E/DX2                !
 ! D4    D(28,1,2,7)             4.4264         estimate D2E/DX2                !
 ! D5    D(2,1,6,5)              1.5004         estimate D2E/DX2                !
 ! D6    D(2,1,6,10)          -179.7501         estimate D2E/DX2                !
 ! D7    D(28,1,6,5)           174.2269         estimate D2E/DX2                !
 ! D8    D(28,1,6,10)           -7.0236         estimate D2E/DX2                !
 ! D9    D(2,1,28,29)          -59.4538         estimate D2E/DX2                !
 ! D10   D(6,1,28,29)          127.8916         estimate D2E/DX2                !
 ! D11   D(1,2,3,4)             -0.1507         estimate D2E/DX2                !
 ! D12   D(1,2,3,8)            179.7724         estimate D2E/DX2                !
 ! D13   D(7,2,3,4)           -178.2119         estimate D2E/DX2                !
 ! D14   D(7,2,3,8)              1.7112         estimate D2E/DX2                !
 ! D15   D(2,3,4,5)              0.7471         estimate D2E/DX2                !
 ! D16   D(2,3,4,9)           -179.6559         estimate D2E/DX2                !
 ! D17   D(8,3,4,5)           -179.1753         estimate D2E/DX2                !
 ! D18   D(8,3,4,9)              0.4216         estimate D2E/DX2                !
 ! D19   D(3,4,5,6)             -0.1993         estimate D2E/DX2                !
 ! D20   D(3,4,5,19)          -179.7956         estimate D2E/DX2                !
 ! D21   D(9,4,5,6)           -179.7984         estimate D2E/DX2                !
 ! D22   D(9,4,5,19)             0.6054         estimate D2E/DX2                !
 ! D23   D(4,5,6,1)             -0.9267         estimate D2E/DX2                !
 ! D24   D(4,5,6,10)          -179.6875         estimate D2E/DX2                !
 ! D25   D(19,5,6,1)           178.6732         estimate D2E/DX2                !
 ! D26   D(19,5,6,10)           -0.0876         estimate D2E/DX2                !
 ! D27   D(1,6,10,11)          124.5092         estimate D2E/DX2                !
 ! D28   D(1,6,10,12)          -56.9882         estimate D2E/DX2                !
 ! D29   D(5,6,10,11)          -56.7671         estimate D2E/DX2                !
 ! D30   D(5,6,10,12)          121.7354         estimate D2E/DX2                !
 ! D31   D(6,10,11,13)        -179.6336         estimate D2E/DX2                !
 ! D32   D(6,10,11,21)          -4.0359         estimate D2E/DX2                !
 ! D33   D(12,10,11,13)          1.8345         estimate D2E/DX2                !
 ! D34   D(12,10,11,21)        177.4322         estimate D2E/DX2                !
 ! D35   D(6,10,12,14)        -179.5536         estimate D2E/DX2                !
 ! D36   D(6,10,12,20)          -0.242          estimate D2E/DX2                !
 ! D37   D(11,10,12,14)         -1.0039         estimate D2E/DX2                !
 ! D38   D(11,10,12,20)        178.3077         estimate D2E/DX2                !
 ! D39   D(10,11,13,15)         -1.365          estimate D2E/DX2                !
 ! D40   D(10,11,13,16)        176.2908         estimate D2E/DX2                !
 ! D41   D(21,11,13,15)       -176.8725         estimate D2E/DX2                !
 ! D42   D(21,11,13,16)          0.7833         estimate D2E/DX2                !
 ! D43   D(10,11,21,22)        139.95           estimate D2E/DX2                !
 ! D44   D(13,11,21,22)        -44.5278         estimate D2E/DX2                !
 ! D45   D(10,12,14,15)         -0.3478         estimate D2E/DX2                !
 ! D46   D(10,12,14,17)       -179.7202         estimate D2E/DX2                !
 ! D47   D(20,12,14,15)       -179.6542         estimate D2E/DX2                !
 ! D48   D(20,12,14,17)          0.9735         estimate D2E/DX2                !
 ! D49   D(11,13,15,14)         -0.0033         estimate D2E/DX2                !
 ! D50   D(11,13,15,18)        179.5501         estimate D2E/DX2                !
 ! D51   D(16,13,15,14)       -177.6308         estimate D2E/DX2                !
 ! D52   D(16,13,15,18)          1.9226         estimate D2E/DX2                !
 ! D53   D(12,14,15,13)          0.8615         estimate D2E/DX2                !
 ! D54   D(12,14,15,18)       -178.6888         estimate D2E/DX2                !
 ! D55   D(17,14,15,13)       -179.7693         estimate D2E/DX2                !
 ! D56   D(17,14,15,18)          0.6804         estimate D2E/DX2                !
 ! D57   D(11,21,22,23)         -4.4184         estimate D2E/DX2                !
 ! D58   D(11,21,22,24)        176.0392         estimate D2E/DX2                !
 ! D59   D(21,22,24,25)        122.0463         estimate D2E/DX2                !
 ! D60   D(21,22,24,26)       -120.3405         estimate D2E/DX2                !
 ! D61   D(21,22,24,27)          0.682          estimate D2E/DX2                !
 ! D62   D(23,22,24,25)        -57.5188         estimate D2E/DX2                !
 ! D63   D(23,22,24,26)         60.0944         estimate D2E/DX2                !
 ! D64   D(23,22,24,27)       -178.8831         estimate D2E/DX2                !
 ! D65   D(1,28,29,30)          -5.2753         estimate D2E/DX2                !
 ! D66   D(1,28,29,31)         176.9272         estimate D2E/DX2                !
 ! D67   D(28,29,31,32)       -133.3148         estimate D2E/DX2                !
 ! D68   D(28,29,31,33)        -11.506          estimate D2E/DX2                !
 ! D69   D(28,29,31,34)        110.1307         estimate D2E/DX2                !
 ! D70   D(30,29,31,32)         49.0597         estimate D2E/DX2                !
 ! D71   D(30,29,31,33)        170.8686         estimate D2E/DX2                !
 ! D72   D(30,29,31,34)        -67.4948         estimate D2E/DX2                !
 --------------------------------------------------------------------------------
 Trust Radius=3.00D-01 FncErr=1.00D-07 GrdErr=1.00D-06 EigMax=2.50D+02 EigMin=1.00D-04
 Number of steps in this run=    173 maximum allowed number of steps=    204.
 GradGradGradGradGradGradGradGradGradGradGradGradGradGradGradGradGradGrad

                          Input orientation:                          
 ---------------------------------------------------------------------
 Center     Atomic      Atomic             Coordinates (Angstroms)
 Number     Number       Type             X           Y           Z
 ---------------------------------------------------------------------
      1          6           0       -1.701637   -0.488619    0.350391
      2          6           0       -2.516230   -1.633594    0.311593
      3          6           0       -2.137310   -2.760122   -0.414904
      4          6           0       -0.933782   -2.758825   -1.120091
      5          6           0       -0.114565   -1.631445   -1.076146
      6          6           0       -0.466019   -0.488636   -0.343677
      7          1           0       -3.438022   -1.638022    0.886561
      8          1           0       -2.782224   -3.635157   -0.426852
      9          1           0       -0.629980   -3.629393   -1.694941
     10          6           0        0.431873    0.701401   -0.325320
     11          6           0        1.781099    0.603253    0.097412
     12          6           0       -0.038356    1.948547   -0.760406
     13          6           0        2.589396    1.753186    0.105790
     14          6           0        0.775359    3.080920   -0.765949
     15          6           0        2.093874    2.982739   -0.321471
     16          1           0        3.603208    1.678480    0.489073
     17          1           0        0.377822    4.033563   -1.105399
     18          1           0        2.734713    3.860499   -0.299478
     19          1           0        0.820839   -1.627915   -1.627267
     20          1           0       -1.062912    2.025335   -1.112044
     21          7           0        2.259498   -0.629284    0.590488
     22          6           0        3.429747   -1.032831    0.281456
     23          1           0        4.065032   -0.476821   -0.425992
     24          6           0        4.009118   -2.289048    0.850673
     25          1           0        4.283969   -2.985506    0.046910
     26          1           0        4.932983   -2.067541    1.402660
     27          1           0        3.296009   -2.773732    1.522498
     28          7           0       -2.029767    0.593307    1.193918
     29          6           0       -3.127108    1.238470    1.110462
     30          1           0       -3.587021    0.791324    0.222621
     31          6           0       -3.924570    2.344583    1.747002
     32          1           0       -4.962379    2.012190    1.879319
     33          1           0       -3.520949    2.659052    2.711947
     34          1           0       -3.961358    3.218059    1.081612
 ---------------------------------------------------------------------
                    Distance matrix (angstroms):
                    1          2          3          4          5
     1  C    0.000000
     2  C    1.405715   0.000000
     3  C    2.436229   1.392998   0.000000
     4  C    2.811717   2.412469   1.394909   0.000000
     5  C    2.420714   2.773773   2.408869   1.394286   0.000000
     6  C    1.417209   2.437965   2.820981   2.444459   1.402157
     7  H    2.150265   1.086420   2.155173   3.399128   3.859745
     8  H    3.416501   2.149955   1.087080   2.159925   3.398948
     9  H    3.898242   3.401078   2.160132   1.086571   2.154149
    10  C    2.534679   3.814338   4.311713   3.803924   2.510877
    11  C    3.658638   4.849371   5.189286   4.489595   3.156684
    12  C    3.152801   4.485619   5.166870   4.805259   3.594696
    13  C    4.847523   6.130257   6.556129   5.854384   4.490446
    14  C    4.485904   5.849983   6.536409   6.095014   4.805681
    15  C    5.187256   6.554720   7.133870   6.539882   5.170825
    16  H    5.732097   6.960521   7.312449   6.547012   5.217983
    17  H    5.185904   6.519208   7.277144   6.917879   5.686441
    18  H    6.246468   7.624360   8.220861   7.612274   6.235627
    19  H    3.401766   3.859435   3.391513   2.148227   1.085692
    20  H    2.977692   4.186483   4.953881   4.785909   3.777921
    21  N    3.970897   4.888149   4.988307   4.202150   3.068904
    22  C    5.160622   5.976326   5.870313   4.897323   3.842339
    23  H    5.818710   6.722735   6.609284   5.538723   4.384619
    24  C    6.008706   6.580303   6.293026   5.341990   4.598895
    25  H    6.492613   6.938330   6.441808   5.351467   4.737282
    26  H    6.900612   7.541188   7.332956   6.423479   5.640248
    27  H    5.618900   6.045521   5.768420   4.987447   4.437317
    28  N    1.410592   2.444224   3.720935   4.218129   3.710891
    29  C    2.364849   3.043044   4.392628   5.075866   4.700328
    30  H    2.282379   2.652308   3.888556   4.630995   4.428833
    31  C    3.862510   4.457545   5.824615   6.573416   6.188303
    32  H    4.384530   4.661883   6.001620   6.927383   6.746269
    33  H    4.335283   5.019758   6.407738   7.122594   6.660441
    34  H    4.402328   5.120534   6.426925   7.052436   6.555260
                    6          7          8          9         10
     6  C    0.000000
     7  H    3.415754   0.000000
     8  H    3.907981   2.478643   0.000000
     9  H    3.423033   4.302884   2.498047   0.000000
    10  C    1.490884   4.681628   5.398746   4.664673   0.000000
    11  C    2.536990   5.734570   6.250031   5.190484   1.417302
    12  C    2.509267   5.209002   6.230395   5.686545   1.402066
    13  C    3.816195   6.959861   7.627073   6.525272   2.438650
    14  C    3.802770   6.538485   7.607698   6.918548   2.444227
    15  C    4.313234   7.308396   8.220948   7.281902   2.822546
    16  H    4.684920   7.793337   8.357476   7.131852   3.416912
    17  H    4.662893   7.120073   8.321994   7.751395   3.422681
    18  H    5.400149   8.351232   9.307936   8.328683   3.909430
    19  H    2.145126   4.945435   4.295588   2.472927   2.696678
    20  H    2.695685   4.801641   5.955392   5.701153   2.146187
    21  N    2.884595   5.793699   5.957282   4.751097   2.439188
    22  C    3.982955   6.920886   6.772177   5.208614   3.516104
    23  H    4.531814   7.704999   7.540557   5.795867   3.820757
    24  C    4.969387   7.475628   7.040341   5.458746   4.808578
    25  H    5.380456   7.883519   7.111792   5.253145   5.345136
    26  H    5.889979   8.397891   8.082633   6.555995   5.559941
    27  H    4.780913   6.858675   6.441035   5.147568   4.867675
    28  N    2.445426   2.656404   4.590533   5.304348   2.894726
    29  C    3.489815   2.901897   5.121964   6.148335   3.875082
    30  H    3.420474   2.522844   4.545685   5.653661   4.057072
    31  C    4.935549   4.103441   6.464355   7.641314   5.096387
    32  H    5.604739   4.078392   6.477965   7.960683   5.972985
    33  H    5.345782   4.669450   7.072118   8.205054   5.355576
    34  H    5.290410   4.888093   7.115644   8.105241   5.254856
                   11         12         13         14         15
    11  C    0.000000
    12  C    2.419935   0.000000
    13  C    1.405617   2.773723   0.000000
    14  C    2.809936   1.394429   2.411128   0.000000
    15  C    2.436236   2.410108   1.392801   1.394877   0.000000
    16  H    2.151649   3.859420   1.086417   3.396859   2.153175
    17  H    3.896533   2.153954   3.399729   1.086642   2.159539
    18  H    3.417097   3.399695   2.150843   2.159724   1.087024
    19  H    2.979048   3.778987   4.190838   4.787177   4.958211
    20  H    3.401985   1.085938   3.859603   2.147855   3.392186
    21  N    1.411077   3.708134   2.453554   4.219977   3.729050
    22  C    2.329953   4.690611   2.915294   5.006574   4.274679
    23  H    2.580089   4.778288   2.726394   4.857473   3.983082
    24  C    3.727851   6.077403   4.348576   6.473579   5.730080
    25  H    4.375626   6.609019   5.032916   7.054970   6.368058
    26  H    4.332573   6.747001   4.666072   6.963860   6.044708
    27  H    3.966088   6.215268   4.795764   6.772563   6.162979
    28  N    3.965492   3.101899   4.885285   4.230606   5.001020
    29  C    5.051759   3.680319   5.826896   4.705825   5.687843
    30  H    5.372873   3.859861   6.251956   5.024926   6.113175
    31  C    6.189348   4.641831   6.743521   5.380190   6.395896
    32  H    7.115813   5.587325   7.761559   6.407906   7.454941
    33  H    6.258899   4.968955   6.704399   5.543645   6.390042
    34  H    6.386053   4.516042   6.783101   5.086136   6.220117
                   16         17         18         19         20
    16  H    0.000000
    17  H    4.300218   0.000000
    18  H    2.477358   2.496877   0.000000
    19  H    4.811727   5.702714   5.962267   0.000000
    20  H    4.945357   2.471586   4.295352   4.142488   0.000000
    21  N    2.672380   5.306494   4.601741   2.825852   4.580832
    22  C    2.724775   6.075028   4.976468   3.286906   5.610544
    23  H    2.386618   5.865209   4.538513   3.645938   5.746935
    24  C    4.004597   7.549036   6.384660   4.091749   6.942020
    25  H    4.734101   8.114994   7.027657   4.079116   7.418951
    26  H    4.078678   8.016441   6.547620   5.126739   7.682846
    27  H    4.580887   7.858812   6.902729   4.166579   6.998003
    28  N    5.779690   4.787348   5.966996   4.584634   2.881488
    29  C    6.773248   5.000712   6.574490   5.594427   3.133623
    30  H    7.249651   5.291099   7.046754   5.357615   3.110505
    31  C    7.661170   5.431337   7.129666   7.048782   4.057727
    32  H    8.684090   6.442999   8.210276   7.680633   4.914699
    33  H    7.527039   5.626885   7.045954   7.487189   4.589821
    34  H    7.742356   4.927124   6.867133   7.327408   3.825664
                   21         22         23         24         25
    21  N    0.000000
    22  C    1.275866   0.000000
    23  H    2.077602   1.101461   0.000000
    24  C    2.425630   1.495914   2.217469   0.000000
    25  H    3.153687   2.144212   2.562239   1.098468   0.000000
    26  H    3.142567   2.141831   2.574431   1.098764   1.761232
    27  H    2.557666   2.142150   3.108667   1.093065   1.788372
    28  N    4.500739   5.769160   6.396550   6.700292   7.347570
    29  C    5.724893   6.988448   7.551807   7.964709   8.596347
    30  H    6.027872   7.250244   7.783496   8.220977   8.731999
    31  C    6.958743   8.224398   8.747340   9.231324   9.933794
    32  H    7.797049   9.069349   9.643847  10.002326  10.669097
    33  H    6.980496   8.237079   8.787917   9.200541   9.994009
    34  H    7.330914   8.563805   8.963702   9.690720  10.370162
                   26         27         28         29         30
    26  H    0.000000
    27  H    1.786827   0.000000
    28  N    7.456780   6.309422   0.000000
    29  C    8.716660   7.584456   1.275679   0.000000
    30  H    9.063999   7.859733   1.845987   1.095318   0.000000
    31  C    9.901598   8.853491   2.638777   1.504863   2.202337
    32  H   10.713991   9.551615   3.329146   2.134948   2.475232
    33  H    9.773632   8.797776   2.965694   2.176676   3.112799
    34  H   10.351326   9.421535   3.260825   2.148390   2.601353
                   31         32         33         34
    31  C    0.000000
    32  H    1.097743   0.000000
    33  H    1.092209   1.785894   0.000000
    34  H    1.098662   1.758550   1.778888   0.000000
 Stoichiometry    C16H16N2
 Framework group  C1[X(C16H16N2)]
 Deg. of freedom    96
 Full point group                 C1      NOp   1
 Largest Abelian subgroup         C1      NOp   1
 Largest concise Abelian subgroup C1      NOp   1
                         Standard orientation:                         
 ---------------------------------------------------------------------
 Center     Atomic      Atomic             Coordinates (Angstroms)
 Number     Number       Type             X           Y           Z
 ---------------------------------------------------------------------
      1          6           0        1.627020    0.828837    0.134964
      2          6           0        2.245647    2.090985    0.117093
      3          6           0        1.628455    3.184682   -0.485687
      4          6           0        0.378455    3.032599   -1.085804
      5          6           0       -0.246975    1.786702   -1.061069
      6          6           0        0.346319    0.672137   -0.451322
      7          1           0        3.205804    2.208646    0.611626
      8          1           0        2.124908    4.151777   -0.483627
      9          1           0       -0.110570    3.876862   -1.564042
     10          6           0       -0.349118   -0.646613   -0.450291
     11          6           0       -1.650872   -0.795674    0.090045
     12          6           0        0.266462   -1.770883   -1.018503
     13          6           0       -2.265422   -2.059760    0.076784
     14          6           0       -0.357474   -3.017678   -1.043780
     15          6           0       -1.626976   -3.163095   -0.484405
     16          1           0       -3.237486   -2.174968    0.548081
     17          1           0        0.149772   -3.869787   -1.488079
     18          1           0       -2.118044   -4.132847   -0.477037
     19          1           0       -1.218393    1.666209   -1.530703
     20          1           0        1.252416   -1.657980   -1.459420
     21          7           0       -2.266705    0.309221    0.715420
     22          6           0       -3.509550    0.536170    0.537475
     23          1           0       -4.114547   -0.069768   -0.155370
     24          6           0       -4.221128    1.643183    1.248768
     25          1           0       -4.676247    2.335158    0.527194
     26          1           0       -5.042547    1.240232    1.857193
     27          1           0       -3.531868    2.193768    1.894190
     28          7           0        2.198421   -0.236577    0.861713
     29          6           0        3.370036   -0.688488    0.637093
     30          1           0        3.668242   -0.117438   -0.248737
     31          6           0        4.387017   -1.688462    1.117108
     32          1           0        5.368090   -1.201054    1.187601
     33          1           0        4.130776   -2.124598    2.085120
     34          1           0        4.496306   -2.500581    0.385277
 ---------------------------------------------------------------------
 Rotational constants (GHZ):           0.5076846           0.3447675           0.2333097
 Standard basis: 6-31G(d) (6D, 7F)
 There are   302 symmetry adapted cartesian basis functions of A   symmetry.
 There are   302 symmetry adapted basis functions of A   symmetry.
   302 basis functions,   568 primitive gaussians,   302 cartesian basis functions
    63 alpha electrons       63 beta electrons
       nuclear repulsion energy      1203.6023328183 Hartrees.
 NAtoms=   34 NActive=   34 NUniq=   34 SFac= 1.00D+00 NAtFMM=   60 NAOKFM=F Big=F
 Integral buffers will be    131072 words long.
 Raffenetti 2 integral format.
 Two-electron integral symmetry is turned on.
 ------------------------------------------------------------------------------
 Polarizable Continuum Model (PCM)
 =================================
 Model                : PCM.
 Atomic radii         : SMD-Coulomb.
 Polarization charges : Total charges.
 Charge compensation  : None.
 Solution method      : On-the-fly selection.
 Cavity type          : VdW (van der Waals Surface) (Alpha=1.000).
 Cavity algorithm     : GePol (No added spheres)
                        Default sphere list used, NSphG=   34.
                        Lebedev-Laikov grids with approx.  5.0 points / Ang**2.
                        Smoothing algorithm: York/Karplus (Gamma=1.0000).
                        Polarization charges: spherical gaussians, with
                                              point-specific exponents (IZeta= 3).
                        Self-potential: point-specific (ISelfS= 7).
                        Self-field    : sphere-specific E.n sum rule (ISelfD= 2).
 1st derivatives      : Analytical E(r).r(x)/FMM algorithm (CHGder, D1EAlg=3).
                        Cavity 1st derivative terms included.
 Solvent              : Toluene, Eps=   2.374100 Eps(inf)=   2.238315
 ------------------------------------------------------------------------------
 ------------------------------------------------------------------------------
 Atomic radii for non-electrostatic terms: SMD-CDS.
 ------------------------------------------------------------------------------
 Nuclear repulsion after PCM non-electrostatic terms =     1203.5920418087 Hartrees.
 One-electron integrals computed using PRISM.
 NBasis=   302 RedAO= T EigKep=  3.46D-04  NBF=   302
 NBsUse=   302 1.00D-06 EigRej= -1.00D+00 NBFU=   302
 ExpMin= 1.61D-01 ExpMax= 4.17D+03 ExpMxC= 6.27D+02 IAcc=3 IRadAn=         5 AccDes= 0.00D+00
 Harris functional with IExCor=  402 and IRadAn=       5 diagonalized for initial guess.
 HarFok:  IExCor=  402 AccDes= 0.00D+00 IRadAn=         5 IDoV= 1 UseB2=F ITyADJ=14
 ICtDFT=  3500011 ScaDFX=  1.000000  1.000000  1.000000  1.000000
 FoFCou: FMM=F IPFlag=           0 FMFlag=      100000 FMFlg1=           0
         NFxFlg=           0 DoJE=T BraDBF=F KetDBF=T FulRan=T
         wScrn=  0.000000 ICntrl=       500 IOpCl=  0 I1Cent=   200000004 NGrid=           0
         NMat0=    1 NMatS0=      1 NMatT0=    0 NMatD0=    1 NMtDS0=    0 NMtDT0=    0
 Petite list used in FoFCou.
 Requested convergence on RMS density matrix=1.00D-08 within 128 cycles.
 Requested convergence on MAX density matrix=1.00D-06.
 Requested convergence on             energy=1.00D-06.
 No special actions if energy rises.
 Inv3:  Mode=1 IEnd=    21290688.
 Iteration    1 A*A^-1 deviation from unit magnitude is 5.66D-15 for   2648.
 Iteration    1 A*A^-1 deviation from orthogonality  is 1.89D-15 for   1785    255.
 Iteration    1 A^-1*A deviation from unit magnitude is 5.66D-15 for   2648.
 Iteration    1 A^-1*A deviation from orthogonality  is 3.42D-14 for   2655   1549.
 Error on total polarization charges =  0.03197
 SCF Done:  E(RB3LYP) =  -728.811610204     A.U. after   13 cycles
            NFock= 13  Conv=0.55D-08     -V/T= 2.0099
 SMD-CDS (non-electrostatic) energy       (kcal/mol) =      -6.46
 (included in total energy above)

 **********************************************************************

            Population analysis using the SCF Density.

 **********************************************************************

 Orbital symmetries:
       Occupied  (A) (A) (A) (A) (A) (A) (A) (A) (A) (A) (A) (A)
                 (A) (A) (A) (A) (A) (A) (A) (A) (A) (A) (A) (A)
                 (A) (A) (A) (A) (A) (A) (A) (A) (A) (A) (A) (A)
                 (A) (A) (A) (A) (A) (A) (A) (A) (A) (A) (A) (A)
                 (A) (A) (A) (A) (A) (A) (A) (A) (A) (A) (A) (A)
                 (A) (A) (A)
       Virtual   (A) (A) (A) (A) (A) (A) (A) (A) (A) (A) (A) (A)
                 (A) (A) (A) (A) (A) (A) (A) (A) (A) (A) (A) (A)
                 (A) (A) (A) (A) (A) (A) (A) (A) (A) (A) (A) (A)
                 (A) (A) (A) (A) (A) (A) (A) (A) (A) (A) (A) (A)
                 (A) (A) (A) (A) (A) (A) (A) (A) (A) (A) (A) (A)
                 (A) (A) (A) (A) (A) (A) (A) (A) (A) (A) (A) (A)
                 (A) (A) (A) (A) (A) (A) (A) (A) (A) (A) (A) (A)
                 (A) (A) (A) (A) (A) (A) (A) (A) (A) (A) (A) (A)
                 (A) (A) (A) (A) (A) (A) (A) (A) (A) (A) (A) (A)
                 (A) (A) (A) (A) (A) (A) (A) (A) (A) (A) (A) (A)
                 (A) (A) (A) (A) (A) (A) (A) (A) (A) (A) (A) (A)
                 (A) (A) (A) (A) (A) (A) (A) (A) (A) (A) (A) (A)
                 (A) (A) (A) (A) (A) (A) (A) (A) (A) (A) (A) (A)
                 (A) (A) (A) (A) (A) (A) (A) (A) (A) (A) (A) (A)
                 (A) (A) (A) (A) (A) (A) (A) (A) (A) (A) (A) (A)
                 (A) (A) (A) (A) (A) (A) (A) (A) (A) (A) (A) (A)
                 (A) (A) (A) (A) (A) (A) (A) (A) (A) (A) (A) (A)
                 (A) (A) (A) (A) (A) (A) (A) (A) (A) (A) (A) (A)
                 (A) (A) (A) (A) (A) (A) (A) (A) (A) (A) (A) (A)
                 (A) (A) (A) (A) (A) (A) (A) (A) (A) (A) (A)
 The electronic state is 1-A.
 Alpha  occ. eigenvalues --  -14.32800 -14.32711 -10.23449 -10.23125 -10.21790
 Alpha  occ. eigenvalues --  -10.21563 -10.19636 -10.19152 -10.19095 -10.18424
 Alpha  occ. eigenvalues --  -10.18319 -10.18266 -10.18249 -10.18169 -10.18162
 Alpha  occ. eigenvalues --  -10.18086 -10.18010 -10.17872  -0.93076  -0.92700
 Alpha  occ. eigenvalues --   -0.84827  -0.83266  -0.76967  -0.75612  -0.75081
 Alpha  occ. eigenvalues --   -0.72312  -0.71479  -0.70208  -0.62075  -0.61655
 Alpha  occ. eigenvalues --   -0.60787  -0.57479  -0.54970  -0.54566  -0.52002
 Alpha  occ. eigenvalues --   -0.50396  -0.48025  -0.46382  -0.45817  -0.44910
 Alpha  occ. eigenvalues --   -0.43534  -0.43245  -0.42433  -0.42021  -0.41790
 Alpha  occ. eigenvalues --   -0.40936  -0.40540  -0.39615  -0.38520  -0.36977
 Alpha  occ. eigenvalues --   -0.36432  -0.35673  -0.34694  -0.34274  -0.33987
 Alpha  occ. eigenvalues --   -0.30894  -0.30385  -0.26940  -0.26464  -0.24733
 Alpha  occ. eigenvalues --   -0.23001  -0.21712  -0.20584
 Alpha virt. eigenvalues --   -0.03124  -0.01143  -0.00474   0.01854   0.03081
 Alpha virt. eigenvalues --    0.03915   0.09815   0.11232   0.11615   0.12492
 Alpha virt. eigenvalues --    0.14456   0.14726   0.15352   0.15797   0.16140
 Alpha virt. eigenvalues --    0.16604   0.17254   0.17941   0.18113   0.18348
 Alpha virt. eigenvalues --    0.18829   0.19618   0.19785   0.20344   0.21212
 Alpha virt. eigenvalues --    0.24267   0.25787   0.27429   0.28939   0.30223
 Alpha virt. eigenvalues --    0.31487   0.32596   0.34027   0.34882   0.35321
 Alpha virt. eigenvalues --    0.35678   0.37844   0.41382   0.43305   0.49780
 Alpha virt. eigenvalues --    0.49942   0.51485   0.52338   0.52828   0.53162
 Alpha virt. eigenvalues --    0.53892   0.54409   0.54647   0.55328   0.55718
 Alpha virt. eigenvalues --    0.56243   0.57489   0.57680   0.58238   0.59273
 Alpha virt. eigenvalues --    0.60140   0.60635   0.60685   0.61214   0.61806
 Alpha virt. eigenvalues --    0.61916   0.62452   0.62769   0.63261   0.64280
 Alpha virt. eigenvalues --    0.64969   0.65358   0.66736   0.67146   0.68989
 Alpha virt. eigenvalues --    0.70173   0.70437   0.71410   0.72817   0.74008
 Alpha virt. eigenvalues --    0.74601   0.76200   0.77101   0.78456   0.82426
 Alpha virt. eigenvalues --    0.83253   0.83429   0.83996   0.84432   0.85164
 Alpha virt. eigenvalues --    0.85883   0.86458   0.86694   0.87337   0.88189
 Alpha virt. eigenvalues --    0.88539   0.89979   0.90139   0.90713   0.91112
 Alpha virt. eigenvalues --    0.92196   0.92585   0.94484   0.94952   0.95700
 Alpha virt. eigenvalues --    0.96446   0.97591   0.99186   1.00189   1.00862
 Alpha virt. eigenvalues --    1.02263   1.04407   1.06205   1.07278   1.07840
 Alpha virt. eigenvalues --    1.10450   1.11650   1.12617   1.14566   1.16575
 Alpha virt. eigenvalues --    1.19868   1.21049   1.22835   1.24233   1.26390
 Alpha virt. eigenvalues --    1.28262   1.28848   1.32215   1.33782   1.36140
 Alpha virt. eigenvalues --    1.39755   1.41035   1.42523   1.43682   1.45136
 Alpha virt. eigenvalues --    1.45932   1.47096   1.47803   1.50063   1.50726
 Alpha virt. eigenvalues --    1.51173   1.51541   1.53170   1.57041   1.59102
 Alpha virt. eigenvalues --    1.61769   1.64719   1.67050   1.68698   1.72344
 Alpha virt. eigenvalues --    1.75744   1.78076   1.78417   1.80647   1.82114
 Alpha virt. eigenvalues --    1.82621   1.83407   1.85588   1.87064   1.89338
 Alpha virt. eigenvalues --    1.90010   1.92306   1.93586   1.94089   1.95196
 Alpha virt. eigenvalues --    1.96864   1.97975   1.99042   2.00983   2.02295
 Alpha virt. eigenvalues --    2.03164   2.07187   2.07890   2.11178   2.11370
 Alpha virt. eigenvalues --    2.13602   2.13941   2.14810   2.16069   2.19811
 Alpha virt. eigenvalues --    2.21569   2.22137   2.23034   2.24115   2.25324
 Alpha virt. eigenvalues --    2.26188   2.26813   2.28954   2.29645   2.30918
 Alpha virt. eigenvalues --    2.32249   2.33068   2.35157   2.36663   2.39003
 Alpha virt. eigenvalues --    2.43462   2.44898   2.49794   2.50126   2.53006
 Alpha virt. eigenvalues --    2.55842   2.57903   2.58766   2.61900   2.62944
 Alpha virt. eigenvalues --    2.65570   2.66514   2.68068   2.71561   2.72264
 Alpha virt. eigenvalues --    2.73462   2.74653   2.76508   2.78173   2.81158
 Alpha virt. eigenvalues --    2.82460   2.85174   2.91234   2.93350   2.96844
 Alpha virt. eigenvalues --    3.05694   3.10399   3.17725   3.24838   3.39113
 Alpha virt. eigenvalues --    3.47037   4.04221   4.06772   4.08673   4.10406
 Alpha virt. eigenvalues --    4.11301   4.11948   4.15706   4.17114   4.18220
 Alpha virt. eigenvalues --    4.28218   4.34502   4.34851   4.38193   4.40507
 Alpha virt. eigenvalues --    4.43559   4.45865   4.69587   4.80794
          Condensed to atoms (all electrons):
               1          2          3          4          5          6
     1  C    4.729055   0.468295  -0.010244  -0.041907  -0.017624   0.487148
     2  C    0.468295   5.072595   0.498416  -0.028418  -0.058427  -0.033413
     3  C   -0.010244   0.498416   4.897872   0.539137  -0.026884  -0.037035
     4  C   -0.041907  -0.028418   0.539137   4.906645   0.507902  -0.020344
     5  C   -0.017624  -0.058427  -0.026884   0.507902   4.990008   0.516361
     6  C    0.487148  -0.033413  -0.037035  -0.020344   0.516361   4.967264
     7  H   -0.041197   0.353033  -0.041618   0.004610   0.000479   0.005185
     8  H    0.003293  -0.037500   0.357419  -0.041034   0.004350   0.000890
     9  H    0.000870   0.004456  -0.042041   0.359048  -0.038021   0.003493
    10  C   -0.046153   0.009703  -0.000288   0.006832  -0.062818   0.276215
    11  C    0.002767  -0.000145   0.000032   0.000225  -0.007413  -0.044443
    12  C   -0.006772   0.000366  -0.000000  -0.000134   0.002181  -0.064317
    13  C   -0.000156   0.000000   0.000000   0.000002   0.000356   0.010292
    14  C    0.000229   0.000002  -0.000000   0.000001  -0.000124   0.006951
    15  C    0.000033   0.000000   0.000000  -0.000000  -0.000002  -0.000370
    16  H    0.000000  -0.000000   0.000000  -0.000000   0.000001  -0.000134
    17  H   -0.000007  -0.000000   0.000000  -0.000000   0.000000  -0.000170
    18  H   -0.000000   0.000000  -0.000000   0.000000   0.000000   0.000010
    19  H    0.004827   0.000469   0.004805  -0.043292   0.355916  -0.040900
    20  H    0.003132  -0.000035  -0.000020  -0.000007   0.000261  -0.007714
    21  N   -0.000313  -0.000037   0.000016  -0.000280   0.002416  -0.010795
    22  C   -0.000000  -0.000000   0.000002  -0.000034  -0.000615   0.000557
    23  H   -0.000002  -0.000000   0.000000   0.000000  -0.000004   0.000153
    24  C    0.000001   0.000000  -0.000000  -0.000002   0.000004  -0.000066
    25  H    0.000000  -0.000000  -0.000000   0.000002   0.000023   0.000000
    26  H   -0.000000   0.000000   0.000000  -0.000000  -0.000001   0.000000
    27  H    0.000000  -0.000000   0.000000   0.000003   0.000066   0.000018
    28  N    0.312182  -0.084298   0.006365  -0.000066   0.006019  -0.073733
    29  C   -0.039395  -0.012603   0.000244   0.000026  -0.000045   0.000504
    30  H   -0.007324   0.019426  -0.001035  -0.000002  -0.000276   0.001594
    31  C    0.001895   0.000076   0.000010  -0.000000   0.000004  -0.000104
    32  H   -0.000088   0.000013  -0.000001   0.000000  -0.000000  -0.000003
    33  H    0.000224   0.000002  -0.000000   0.000000  -0.000000  -0.000007
    34  H   -0.000124   0.000002   0.000000  -0.000000  -0.000000   0.000020
               7          8          9         10         11         12
     1  C   -0.041197   0.003293   0.000870  -0.046153   0.002767  -0.006772
     2  C    0.353033  -0.037500   0.004456   0.009703  -0.000145   0.000366
     3  C   -0.041618   0.357419  -0.042041  -0.000288   0.000032  -0.000000
     4  C    0.004610  -0.041034   0.359048   0.006832   0.000225  -0.000134
     5  C    0.000479   0.004350  -0.038021  -0.062818  -0.007413   0.002181
     6  C    0.005185   0.000890   0.003493   0.276215  -0.044443  -0.064317
     7  H    0.584638  -0.005441  -0.000178  -0.000133   0.000000   0.000001
     8  H   -0.005441   0.582252  -0.004961   0.000009  -0.000000   0.000000
     9  H   -0.000178  -0.004961   0.585243  -0.000166  -0.000007   0.000001
    10  C   -0.000133   0.000009  -0.000166   4.976684   0.488952   0.516717
    11  C    0.000000  -0.000000  -0.000007   0.488952   4.711996  -0.017872
    12  C    0.000001   0.000000   0.000001   0.516717  -0.017872   4.998122
    13  C   -0.000000   0.000000  -0.000000  -0.039275   0.467115  -0.059729
    14  C   -0.000000   0.000000  -0.000000  -0.021172  -0.042363   0.508299
    15  C    0.000000  -0.000000   0.000000  -0.035687  -0.007549  -0.026782
    16  H    0.000000  -0.000000   0.000000   0.004926  -0.040801   0.000503
    17  H    0.000000  -0.000000   0.000000   0.003456   0.000871  -0.038100
    18  H   -0.000000  -0.000000  -0.000000   0.000918   0.003147   0.004318
    19  H    0.000017  -0.000191  -0.005277  -0.008301   0.002894   0.000290
    20  H    0.000006  -0.000000   0.000000  -0.040884   0.004745   0.355356
    21  N    0.000000   0.000000  -0.000010  -0.074560   0.312448   0.006219
    22  C   -0.000000   0.000000  -0.000001   0.003365  -0.050123  -0.000140
    23  H    0.000000   0.000000  -0.000000   0.000468  -0.008150  -0.000095
    24  C   -0.000000  -0.000000   0.000001  -0.000190   0.004236   0.000006
    25  H    0.000000  -0.000000  -0.000000   0.000019  -0.000199  -0.000000
    26  H   -0.000000   0.000000  -0.000000  -0.000003  -0.000057  -0.000000
    27  H    0.000000   0.000000  -0.000001  -0.000042   0.000495  -0.000000
    28  N   -0.007851  -0.000107   0.000004  -0.012011  -0.000443   0.002247
    29  C    0.004439  -0.000013   0.000000   0.000739   0.000024  -0.000088
    30  H    0.004503   0.000019   0.000000   0.000478  -0.000009  -0.000175
    31  C   -0.000397  -0.000000   0.000000  -0.000042   0.000001   0.000057
    32  H    0.000023   0.000000  -0.000000  -0.000000  -0.000000  -0.000000
    33  H    0.000015   0.000000   0.000000   0.000003  -0.000000  -0.000000
    34  H    0.000006  -0.000000  -0.000000   0.000002   0.000000   0.000045
              13         14         15         16         17         18
     1  C   -0.000156   0.000229   0.000033   0.000000  -0.000007  -0.000000
     2  C    0.000000   0.000002   0.000000  -0.000000  -0.000000   0.000000
     3  C    0.000000  -0.000000   0.000000   0.000000   0.000000  -0.000000
     4  C    0.000002   0.000001  -0.000000  -0.000000  -0.000000   0.000000
     5  C    0.000356  -0.000124  -0.000002   0.000001   0.000000   0.000000
     6  C    0.010292   0.006951  -0.000370  -0.000134  -0.000170   0.000010
     7  H   -0.000000  -0.000000   0.000000   0.000000   0.000000  -0.000000
     8  H    0.000000   0.000000  -0.000000  -0.000000  -0.000000  -0.000000
     9  H   -0.000000  -0.000000   0.000000   0.000000   0.000000  -0.000000
    10  C   -0.039275  -0.021172  -0.035687   0.004926   0.003456   0.000918
    11  C    0.467115  -0.042363  -0.007549  -0.040801   0.000871   0.003147
    12  C   -0.059729   0.508299  -0.026782   0.000503  -0.038100   0.004318
    13  C    5.094236  -0.026815   0.492204   0.352733   0.004489  -0.036875
    14  C   -0.026815   4.905190   0.537101   0.004558   0.358889  -0.041042
    15  C    0.492204   0.537101   4.905015  -0.042356  -0.041978   0.357003
    16  H    0.352733   0.004558  -0.042356   0.584152  -0.000180  -0.005293
    17  H    0.004489   0.358889  -0.041978  -0.000180   0.584944  -0.004950
    18  H   -0.036875  -0.041042   0.357003  -0.005293  -0.004950   0.581939
    19  H   -0.000082  -0.000002  -0.000020   0.000006   0.000000  -0.000000
    20  H    0.000429  -0.043097   0.004823   0.000017  -0.005301  -0.000191
    21  N   -0.083069  -0.000137   0.006757  -0.009096   0.000004  -0.000110
    22  C   -0.013454   0.000013   0.000378   0.004801  -0.000000  -0.000013
    23  H    0.012512   0.000007  -0.000719   0.005253   0.000000   0.000023
    24  C    0.000164  -0.000000   0.000009  -0.000446  -0.000000  -0.000000
    25  H    0.000009  -0.000000   0.000000   0.000011  -0.000000  -0.000000
    26  H    0.000001   0.000000  -0.000002   0.000027  -0.000000   0.000000
    27  H    0.000025   0.000000  -0.000000   0.000012   0.000000   0.000000
    28  N   -0.000033  -0.000191   0.000008   0.000000  -0.000005   0.000000
    29  C    0.000001  -0.000046   0.000002  -0.000000  -0.000002   0.000000
    30  H   -0.000000   0.000005   0.000001   0.000000  -0.000002   0.000000
    31  C    0.000000  -0.000003  -0.000000  -0.000000   0.000001  -0.000000
    32  H    0.000000   0.000000   0.000000  -0.000000  -0.000000   0.000000
    33  H   -0.000000   0.000000   0.000000   0.000000  -0.000000   0.000000
    34  H   -0.000000   0.000005  -0.000000   0.000000  -0.000001  -0.000000
              19         20         21         22         23         24
     1  C    0.004827   0.003132  -0.000313  -0.000000  -0.000002   0.000001
     2  C    0.000469  -0.000035  -0.000037  -0.000000  -0.000000   0.000000
     3  C    0.004805  -0.000020   0.000016   0.000002   0.000000  -0.000000
     4  C   -0.043292  -0.000007  -0.000280  -0.000034   0.000000  -0.000002
     5  C    0.355916   0.000261   0.002416  -0.000615  -0.000004   0.000004
     6  C   -0.040900  -0.007714  -0.010795   0.000557   0.000153  -0.000066
     7  H    0.000017   0.000006   0.000000  -0.000000   0.000000  -0.000000
     8  H   -0.000191  -0.000000   0.000000   0.000000   0.000000  -0.000000
     9  H   -0.005277   0.000000  -0.000010  -0.000001  -0.000000   0.000001
    10  C   -0.008301  -0.040884  -0.074560   0.003365   0.000468  -0.000190
    11  C    0.002894   0.004745   0.312448  -0.050123  -0.008150   0.004236
    12  C    0.000290   0.355356   0.006219  -0.000140  -0.000095   0.000006
    13  C   -0.000082   0.000429  -0.083069  -0.013454   0.012512   0.000164
    14  C   -0.000002  -0.043097  -0.000137   0.000013   0.000007  -0.000000
    15  C   -0.000020   0.004823   0.006757   0.000378  -0.000719   0.000009
    16  H    0.000006   0.000017  -0.009096   0.004801   0.005253  -0.000446
    17  H    0.000000  -0.005301   0.000004  -0.000000   0.000000  -0.000000
    18  H   -0.000000  -0.000191  -0.000110  -0.000013   0.000023  -0.000000
    19  H    0.585493   0.000010   0.002640   0.001309   0.000120  -0.000057
    20  H    0.000010   0.585475  -0.000089   0.000001  -0.000000  -0.000000
    21  N    0.002640  -0.000089   6.822147   0.577678  -0.059752  -0.064336
    22  C    0.001309   0.000001   0.577678   4.767746   0.340292   0.357535
    23  H    0.000120  -0.000000  -0.059752   0.340292   0.640553  -0.075198
    24  C   -0.000057  -0.000000  -0.064336   0.357535  -0.075198   5.203937
    25  H   -0.000002   0.000000   0.000318  -0.025760   0.002215   0.358733
    26  H    0.000002  -0.000000   0.000417  -0.027090   0.001582   0.361285
    27  H    0.000016  -0.000000   0.006713  -0.030426   0.005422   0.359883
    28  N   -0.000088   0.001116  -0.000005  -0.000000   0.000000  -0.000000
    29  C   -0.000001   0.001621  -0.000000   0.000000   0.000000  -0.000000
    30  H   -0.000000   0.000800   0.000000   0.000000   0.000000  -0.000000
    31  C   -0.000000  -0.000105  -0.000000   0.000000  -0.000000  -0.000000
    32  H   -0.000000   0.000000   0.000000  -0.000000   0.000000  -0.000000
    33  H   -0.000000   0.000009   0.000000  -0.000000   0.000000  -0.000000
    34  H    0.000000   0.000062  -0.000000   0.000000   0.000000  -0.000000
              25         26         27         28         29         30
     1  C    0.000000  -0.000000   0.000000   0.312182  -0.039395  -0.007324
     2  C   -0.000000   0.000000  -0.000000  -0.084298  -0.012603   0.019426
     3  C   -0.000000   0.000000   0.000000   0.006365   0.000244  -0.001035
     4  C    0.000002  -0.000000   0.000003  -0.000066   0.000026  -0.000002
     5  C    0.000023  -0.000001   0.000066   0.006019  -0.000045  -0.000276
     6  C    0.000000   0.000000   0.000018  -0.073733   0.000504   0.001594
     7  H    0.000000  -0.000000   0.000000  -0.007851   0.004439   0.004503
     8  H   -0.000000   0.000000   0.000000  -0.000107  -0.000013   0.000019
     9  H   -0.000000  -0.000000  -0.000001   0.000004   0.000000   0.000000
    10  C    0.000019  -0.000003  -0.000042  -0.012011   0.000739   0.000478
    11  C   -0.000199  -0.000057   0.000495  -0.000443   0.000024  -0.000009
    12  C   -0.000000  -0.000000  -0.000000   0.002247  -0.000088  -0.000175
    13  C    0.000009   0.000001   0.000025  -0.000033   0.000001  -0.000000
    14  C   -0.000000   0.000000   0.000000  -0.000191  -0.000046   0.000005
    15  C    0.000000  -0.000002  -0.000000   0.000008   0.000002   0.000001
    16  H    0.000011   0.000027   0.000012   0.000000  -0.000000   0.000000
    17  H   -0.000000  -0.000000   0.000000  -0.000005  -0.000002  -0.000002
    18  H   -0.000000   0.000000   0.000000   0.000000   0.000000   0.000000
    19  H   -0.000002   0.000002   0.000016  -0.000088  -0.000001  -0.000000
    20  H    0.000000  -0.000000  -0.000000   0.001116   0.001621   0.000800
    21  N    0.000318   0.000417   0.006713  -0.000005  -0.000000   0.000000
    22  C   -0.025760  -0.027090  -0.030426  -0.000000   0.000000   0.000000
    23  H    0.002215   0.001582   0.005422   0.000000   0.000000   0.000000
    24  C    0.358733   0.361285   0.359883  -0.000000  -0.000000  -0.000000
    25  H    0.547564  -0.031270  -0.022121  -0.000000  -0.000000   0.000000
    26  H   -0.031270   0.545412  -0.022484   0.000000   0.000000   0.000000
    27  H   -0.022121  -0.022484   0.520324   0.000000   0.000000   0.000000
    28  N   -0.000000   0.000000   0.000000   6.899442   0.537656  -0.102560
    29  C   -0.000000   0.000000   0.000000   0.537656   4.764128   0.347248
    30  H    0.000000   0.000000   0.000000  -0.102560   0.347248   0.713240
    31  C   -0.000000   0.000000  -0.000000  -0.038866   0.351397  -0.080490
    32  H    0.000000  -0.000000   0.000000   0.001103  -0.023765  -0.002053
    33  H    0.000000   0.000000   0.000000   0.002019  -0.027132   0.006328
    34  H    0.000000   0.000000  -0.000000  -0.000527  -0.025328   0.000758
              31         32         33         34
     1  C    0.001895  -0.000088   0.000224  -0.000124
     2  C    0.000076   0.000013   0.000002   0.000002
     3  C    0.000010  -0.000001  -0.000000   0.000000
     4  C   -0.000000   0.000000   0.000000  -0.000000
     5  C    0.000004  -0.000000  -0.000000  -0.000000
     6  C   -0.000104  -0.000003  -0.000007   0.000020
     7  H   -0.000397   0.000023   0.000015   0.000006
     8  H   -0.000000   0.000000   0.000000  -0.000000
     9  H    0.000000  -0.000000   0.000000  -0.000000
    10  C   -0.000042  -0.000000   0.000003   0.000002
    11  C    0.000001  -0.000000  -0.000000   0.000000
    12  C    0.000057  -0.000000  -0.000000   0.000045
    13  C    0.000000   0.000000  -0.000000  -0.000000
    14  C   -0.000003   0.000000   0.000000   0.000005
    15  C   -0.000000   0.000000   0.000000  -0.000000
    16  H   -0.000000  -0.000000   0.000000   0.000000
    17  H    0.000001  -0.000000  -0.000000  -0.000001
    18  H   -0.000000   0.000000   0.000000  -0.000000
    19  H   -0.000000  -0.000000  -0.000000   0.000000
    20  H   -0.000105   0.000000   0.000009   0.000062
    21  N   -0.000000   0.000000   0.000000  -0.000000
    22  C    0.000000  -0.000000  -0.000000   0.000000
    23  H   -0.000000   0.000000   0.000000   0.000000
    24  C   -0.000000  -0.000000  -0.000000  -0.000000
    25  H   -0.000000   0.000000   0.000000   0.000000
    26  H    0.000000  -0.000000   0.000000   0.000000
    27  H   -0.000000   0.000000   0.000000  -0.000000
    28  N   -0.038866   0.001103   0.002019  -0.000527
    29  C    0.351397  -0.023765  -0.027132  -0.025328
    30  H   -0.080490  -0.002053   0.006328   0.000758
    31  C    5.179460   0.369692   0.351072   0.367690
    32  H    0.369692   0.522321  -0.025060  -0.029961
    33  H    0.351072  -0.025060   0.534212  -0.023258
    34  H    0.367690  -0.029961  -0.023258   0.518616
 Mulliken charges:
               1
     1  C    0.197357
     2  C   -0.171979
     3  C   -0.145150
     4  C   -0.148914
     5  C   -0.174093
     6  C    0.056893
     7  H    0.139861
     8  H    0.141015
     9  H    0.137548
    10  C    0.052239
    11  C    0.219626
    12  C   -0.180522
    13  C   -0.175080
    14  C   -0.146259
    15  C   -0.147869
    16  H    0.141306
    17  H    0.138040
    18  H    0.141116
    19  H    0.139400
    20  H    0.139578
    21  N   -0.435183
    22  C    0.093978
    23  H    0.135319
    24  C   -0.505501
    25  H    0.170458
    26  H    0.172180
    27  H    0.182097
    28  N   -0.447378
    29  C    0.120389
    30  H    0.099528
    31  C   -0.501347
    32  H    0.187779
    33  H    0.181573
    34  H    0.191993
 Sum of Mulliken charges =  -0.00000
 Mulliken charges with hydrogens summed into heavy atoms:
               1
     1  C    0.197357
     2  C   -0.032118
     3  C   -0.004135
     4  C   -0.011366
     5  C   -0.034693
     6  C    0.056893
    10  C    0.052239
    11  C    0.219626
    12  C   -0.040944
    13  C   -0.033774
    14  C   -0.008219
    15  C   -0.006752
    21  N   -0.435183
    22  C    0.229297
    24  C    0.019235
    28  N   -0.447378
    29  C    0.219917
    31  C    0.059999
 Electronic spatial extent (au):  <R**2>=           4897.3564
 Charge=              0.0000 electrons
 Dipole moment (field-independent basis, Debye):
    X=              0.2152    Y=             -0.6704    Z=             -1.0556  Tot=              1.2689
 Quadrupole moment (field-independent basis, Debye-Ang):
   XX=            -74.5585   YY=            -94.0103   ZZ=           -108.6004
   XY=             -5.0534   XZ=              0.6033   YZ=             -0.3617
 Traceless Quadrupole moment (field-independent basis, Debye-Ang):
   XX=             17.8312   YY=             -1.6205   ZZ=            -16.2107
   XY=             -5.0534   XZ=              0.6033   YZ=             -0.3617
 Octapole moment (field-independent basis, Debye-Ang**2):
  XXX=              8.7952  YYY=             -3.2109  ZZZ=              7.7569  XYY=              5.5879
  XXY=            -11.6595  XXZ=             27.1147  XZZ=             -1.2211  YZZ=             -0.0501
  YYZ=             -9.1815  XYZ=              2.6924
 Hexadecapole moment (field-independent basis, Debye-Ang**3):
 XXXX=          -3125.5895 YYYY=          -2236.1555 ZZZZ=           -537.1986 XXXY=           -136.2274
 XXXZ=             21.8776 YYYX=             21.6091 YYYZ=             -2.0145 ZZZX=             -0.6328
 ZZZY=             -2.7061 XXYY=           -921.2877 XXZZ=           -696.8850 YYZZ=           -493.3619
 XXYZ=             -8.5057 YYXZ=              4.4788 ZZXY=            -34.6523
 N-N= 1.203592041809D+03 E-N=-4.096973847055D+03  KE= 7.216747136611D+02
 D1PCM: PCM CHGder 1st derivatives, ID1Alg=3 FixD1E=F DoIter=F DoCFld=F I1PDM=0.
 Calling FoFJK, ICntrl=      2127 FMM=F ISym2X=0 I1Cent= 0 IOpClX= 0 NMat=1 NMatS=1 NMatT=0.
 ***** Axes restored to original set *****
 -------------------------------------------------------------------
 Center     Atomic                   Forces (Hartrees/Bohr)
 Number     Number              X              Y              Z
 -------------------------------------------------------------------
      1        6          -0.001736954    0.003874819    0.005764948
      2        6          -0.002477158    0.002964293    0.000073286
      3        6           0.000595605   -0.000302090   -0.001374813
      4        6          -0.001122430   -0.000466827    0.000487612
      5        6          -0.000115906    0.001212009    0.000369535
      6        6           0.000911076    0.000453433   -0.000709431
      7        1           0.000154955    0.000163019    0.000321188
      8        1           0.000047882    0.000066329    0.000106711
      9        1           0.000055502   -0.000040583    0.000119518
     10        6           0.000158093   -0.000095469    0.000238723
     11        6          -0.000051490   -0.000030819   -0.000074603
     12        6          -0.000168173    0.000121934   -0.000176128
     13        6           0.000009899    0.000025357   -0.000000603
     14        6           0.000068980   -0.000039300    0.000063861
     15        6          -0.000005096    0.000038235   -0.000011690
     16        1          -0.000000444   -0.000021184   -0.000010435
     17        1          -0.000002504   -0.000005957   -0.000034588
     18        1          -0.000000806   -0.000020898    0.000006702
     19        1          -0.000062637    0.000120803    0.000006450
     20        1           0.000114610   -0.000031904    0.000046543
     21        7           0.000016324    0.000025305    0.000021416
     22        6          -0.000006064    0.000012435   -0.000010480
     23        1           0.000011204    0.000006992    0.000002836
     24        6          -0.000009851    0.000015544   -0.000003583
     25        1          -0.000007772   -0.000015597    0.000006194
     26        1          -0.000002486   -0.000006404   -0.000001689
     27        1           0.000005448    0.000021931   -0.000015177
     28        7           0.025053890    0.022644633    0.044503471
     29        6          -0.013320729   -0.039412920   -0.057601207
     30        1          -0.032810522    0.015651632   -0.005255577
     31        6           0.019351824   -0.004252688    0.012490488
     32        1           0.002654768   -0.002269405   -0.000129075
     33        1           0.000282068    0.001840307    0.002061684
     34        1           0.002408894   -0.002246963   -0.001282087
 -------------------------------------------------------------------
 Cartesian Forces:  Max     0.057601207 RMS     0.009987109

 GradGradGradGradGradGradGradGradGradGradGradGradGradGradGradGradGradGrad
 Berny optimization.
 FormGI is forming the generalized inverse of G from B-inverse, IUseBI=4.
 Internal  Forces:  Max     0.070054112 RMS     0.007922694
 Search for a local minimum.
 Step number   1 out of a maximum of  173
 All quantities printed in internal units (Hartrees-Bohrs-Radians)
 Mixed Optimization -- RFO/linear search
 Second derivative matrix not updated -- first step.
 ITU=  0
     Eigenvalues ---    0.00702   0.00820   0.00887   0.01290   0.01498
     Eigenvalues ---    0.01545   0.01552   0.01629   0.01629   0.01892
     Eigenvalues ---    0.01915   0.01945   0.01948   0.02091   0.02092
     Eigenvalues ---    0.02102   0.02104   0.02111   0.02111   0.02158
     Eigenvalues ---    0.02158   0.02160   0.02160   0.02170   0.02172
     Eigenvalues ---    0.03334   0.03336   0.06964   0.07269   0.07447
     Eigenvalues ---    0.07488   0.15987   0.15992   0.15998   0.15999
     Eigenvalues ---    0.15999   0.16000   0.16000   0.16000   0.16000
     Eigenvalues ---    0.16000   0.16000   0.16000   0.16000   0.16000
     Eigenvalues ---    0.16000   0.16000   0.22000   0.22000   0.22000
     Eigenvalues ---    0.22002   0.22479   0.22482   0.24437   0.24455
     Eigenvalues ---    0.24788   0.24920   0.24992   0.24994   0.25000
     Eigenvalues ---    0.25000   0.31872   0.32810   0.33353   0.33521
     Eigenvalues ---    0.33819   0.33831   0.33852   0.33933   0.34205
     Eigenvalues ---    0.34461   0.34559   0.35152   0.35159   0.35204
     Eigenvalues ---    0.35212   0.35230   0.35230   0.35286   0.35315
     Eigenvalues ---    0.40690   0.40697   0.41502   0.41514   0.43833
     Eigenvalues ---    0.43909   0.44319   0.44326   0.45612   0.45612
     Eigenvalues ---    0.46020   0.46029   0.46638   0.46649   0.74367
     Eigenvalues ---    0.74427
 RFO step:  Lambda=-4.17348413D-02 EMin= 7.01614132D-03
 Linear search not attempted -- first point.
 Maximum step size (   0.300) exceeded in Quadratic search.
    -- Step size scaled by   0.725
 Iteration  1 RMS(Cart)=  0.06456291 RMS(Int)=  0.00394821
 Iteration  2 RMS(Cart)=  0.00837014 RMS(Int)=  0.00005271
 Iteration  3 RMS(Cart)=  0.00007646 RMS(Int)=  0.00001957
 Iteration  4 RMS(Cart)=  0.00000001 RMS(Int)=  0.00001957
 Variable       Old X    -DE/DX   Delta X   Delta X   Delta X     New X
                                 (Linear)    (Quad)   (Total)
    R1        2.65642  -0.00141   0.00000  -0.00216  -0.00215   2.65426
    R2        2.67814   0.00018   0.00000   0.00019   0.00020   2.67834
    R3        2.66563  -0.01013   0.00000  -0.01527  -0.01527   2.65037
    R4        2.63238   0.00045   0.00000   0.00066   0.00066   2.63305
    R5        2.05304   0.00004   0.00000   0.00007   0.00007   2.05311
    R6        2.63600  -0.00053   0.00000  -0.00068  -0.00068   2.63531
    R7        2.05428  -0.00008   0.00000  -0.00015  -0.00015   2.05413
    R8        2.63482   0.00107   0.00000   0.00159   0.00158   2.63640
    R9        2.05332  -0.00002   0.00000  -0.00003  -0.00003   2.05329
   R10        2.64969  -0.00093   0.00000  -0.00138  -0.00138   2.64831
   R11        2.05166  -0.00006   0.00000  -0.00010  -0.00010   2.05156
   R12        2.81736   0.00006   0.00000   0.00012   0.00012   2.81749
   R13        2.67831  -0.00006   0.00000  -0.00009  -0.00009   2.67822
   R14        2.64952   0.00010   0.00000   0.00015   0.00015   2.64967
   R15        2.65623  -0.00001   0.00000  -0.00002  -0.00002   2.65621
   R16        2.66655  -0.00004   0.00000  -0.00005  -0.00005   2.66650
   R17        2.63509   0.00003   0.00000   0.00005   0.00005   2.63514
   R18        2.05212  -0.00013   0.00000  -0.00023  -0.00023   2.05189
   R19        2.63201  -0.00002   0.00000  -0.00003  -0.00003   2.63198
   R20        2.05303  -0.00000   0.00000  -0.00000  -0.00000   2.05303
   R21        2.63594  -0.00000   0.00000  -0.00001  -0.00001   2.63593
   R22        2.05346   0.00001   0.00000   0.00001   0.00001   2.05347
   R23        2.05418  -0.00002   0.00000  -0.00003  -0.00003   2.05415
   R24        2.41104  -0.00002   0.00000  -0.00002  -0.00002   2.41102
   R25        2.08146   0.00001   0.00000   0.00001   0.00001   2.08147
   R26        2.82687  -0.00002   0.00000  -0.00003  -0.00003   2.82684
   R27        2.07580   0.00000   0.00000   0.00001   0.00001   2.07581
   R28        2.07636  -0.00001   0.00000  -0.00001  -0.00001   2.07635
   R29        2.06559  -0.00002   0.00000  -0.00004  -0.00004   2.06556
   R30        2.41068   0.00617   0.00000   0.00569   0.00569   2.41638
   R31        2.06985   0.01165   0.00000   0.02200   0.02200   2.09185
   R32        2.84378  -0.01262   0.00000  -0.02538  -0.02538   2.81840
   R33        2.07443  -0.00184   0.00000  -0.00350  -0.00350   2.07093
   R34        2.06398   0.00245   0.00000   0.00459   0.00459   2.06857
   R35        2.07617  -0.00109   0.00000  -0.00207  -0.00207   2.07410
    A1        2.08485   0.00191   0.00000   0.00497   0.00494   2.08979
    A2        2.10185  -0.00331   0.00000  -0.00762  -0.00768   2.09416
    A3        2.08942   0.00157   0.00000   0.00457   0.00452   2.09394
    A4        2.11235  -0.00087   0.00000  -0.00255  -0.00254   2.10981
    A5        2.07189   0.00014   0.00000   0.00020   0.00020   2.07209
    A6        2.09846   0.00073   0.00000   0.00234   0.00233   2.10079
    A7        2.09163  -0.00022   0.00000  -0.00047  -0.00047   2.09116
    A8        2.08900   0.00004   0.00000  -0.00000  -0.00000   2.08900
    A9        2.10256   0.00018   0.00000   0.00047   0.00047   2.10303
   A10        2.08491   0.00036   0.00000   0.00123   0.00122   2.08613
   A11        2.10360  -0.00019   0.00000  -0.00063  -0.00063   2.10297
   A12        2.09466  -0.00018   0.00000  -0.00059  -0.00059   2.09407
   A13        2.12729   0.00008   0.00000   0.00025   0.00025   2.12753
   A14        2.08616   0.00007   0.00000   0.00025   0.00025   2.08641
   A15        2.06972  -0.00014   0.00000  -0.00050  -0.00050   2.06922
   A16        2.06506  -0.00125   0.00000  -0.00331  -0.00330   2.06176
   A17        2.11653   0.00090   0.00000   0.00235   0.00235   2.11888
   A18        2.10139   0.00034   0.00000   0.00096   0.00096   2.10235
   A19        2.11967  -0.00012   0.00000  -0.00031  -0.00031   2.11936
   A20        2.09926   0.00013   0.00000   0.00032   0.00032   2.09958
   A21        2.06398  -0.00002   0.00000  -0.00003  -0.00003   2.06394
   A22        2.08582   0.00005   0.00000   0.00012   0.00012   2.08594
   A23        2.07997  -0.00004   0.00000  -0.00011  -0.00011   2.07986
   A24        2.11478  -0.00001   0.00000  -0.00002  -0.00002   2.11475
   A25        2.12688  -0.00006   0.00000  -0.00014  -0.00014   2.12674
   A26        2.07123   0.00000   0.00000  -0.00002  -0.00002   2.07122
   A27        2.08501   0.00005   0.00000   0.00015   0.00015   2.08516
   A28        2.11273  -0.00001   0.00000  -0.00004  -0.00004   2.11270
   A29        2.07426  -0.00002   0.00000  -0.00006  -0.00006   2.07420
   A30        2.09547   0.00003   0.00000   0.00010   0.00010   2.09556
   A31        2.08653   0.00004   0.00000   0.00013   0.00013   2.08666
   A32        2.09403  -0.00003   0.00000  -0.00009  -0.00009   2.09394
   A33        2.10257  -0.00001   0.00000  -0.00003  -0.00003   2.10253
   A34        2.08999  -0.00002   0.00000  -0.00005  -0.00005   2.08994
   A35        2.09082  -0.00001   0.00000  -0.00004  -0.00004   2.09078
   A36        2.10235   0.00003   0.00000   0.00009   0.00009   2.10244
   A37        2.09740   0.00007   0.00000   0.00018   0.00018   2.09759
   A38        2.12343   0.00004   0.00000   0.00013   0.00013   2.12355
   A39        2.12785  -0.00008   0.00000  -0.00021  -0.00021   2.12764
   A40        2.03188   0.00003   0.00000   0.00009   0.00009   2.03197
   A41        1.92934   0.00002   0.00000   0.00010   0.00010   1.92944
   A42        1.92572   0.00002   0.00000   0.00007   0.00007   1.92579
   A43        1.93218  -0.00003   0.00000  -0.00013  -0.00013   1.93204
   A44        1.85983  -0.00000   0.00000   0.00002   0.00002   1.85985
   A45        1.90904  -0.00001   0.00000  -0.00004  -0.00004   1.90900
   A46        1.90622   0.00000   0.00000  -0.00001  -0.00001   1.90621
   A47        2.15182  -0.01148   0.00000  -0.02853  -0.02853   2.12329
   A48        1.78008   0.07005   0.00000   0.22377   0.22378   2.00386
   A49        2.49793  -0.06807   0.00000  -0.18841  -0.18841   2.30952
   A50        2.00470  -0.00201   0.00000  -0.03517  -0.03517   1.96953
   A51        1.90648  -0.00349   0.00000  -0.01246  -0.01250   1.89398
   A52        1.97089   0.00328   0.00000   0.01216   0.01220   1.98309
   A53        1.92404  -0.00469   0.00000  -0.01729  -0.01732   1.90672
   A54        1.90716   0.00060   0.00000   0.00298   0.00301   1.91017
   A55        1.85676   0.00354   0.00000   0.01194   0.01182   1.86857
   A56        1.89498   0.00084   0.00000   0.00293   0.00297   1.89795
    D1       -0.01728   0.00039   0.00000   0.00471   0.00472  -0.01256
    D2        3.09098   0.00041   0.00000   0.00464   0.00463   3.09561
    D3       -3.03100  -0.00120   0.00000  -0.01282  -0.01277  -3.04377
    D4        0.07726  -0.00117   0.00000  -0.01290  -0.01286   0.06440
    D5        0.02619  -0.00042   0.00000  -0.00530  -0.00532   0.02087
    D6       -3.13723  -0.00036   0.00000  -0.00491  -0.00493   3.14102
    D7        3.04083   0.00079   0.00000   0.01120   0.01126   3.05210
    D8       -0.12258   0.00084   0.00000   0.01159   0.01165  -0.11094
    D9       -1.03766   0.00329   0.00000   0.04031   0.04028  -0.99738
   D10        2.23213   0.00168   0.00000   0.02270   0.02273   2.25486
   D11       -0.00263  -0.00010   0.00000  -0.00090  -0.00088  -0.00351
   D12        3.13762  -0.00015   0.00000  -0.00172  -0.00171   3.13591
   D13       -3.11038  -0.00011   0.00000  -0.00078  -0.00075  -3.11114
   D14        0.02987  -0.00016   0.00000  -0.00160  -0.00158   0.02828
   D15        0.01304  -0.00018   0.00000  -0.00229  -0.00230   0.01074
   D16       -3.13559  -0.00007   0.00000  -0.00101  -0.00101  -3.13660
   D17       -3.12720  -0.00013   0.00000  -0.00147  -0.00146  -3.12866
   D18        0.00736  -0.00002   0.00000  -0.00018  -0.00017   0.00718
   D19       -0.00348   0.00015   0.00000   0.00162   0.00161  -0.00187
   D20       -3.13803   0.00021   0.00000   0.00250   0.00250  -3.13552
   D21       -3.13807   0.00005   0.00000   0.00033   0.00033  -3.13775
   D22        0.01057   0.00010   0.00000   0.00122   0.00122   0.01179
   D23       -0.01617   0.00017   0.00000   0.00226   0.00227  -0.01391
   D24       -3.13614   0.00011   0.00000   0.00186   0.00187  -3.13427
   D25        3.11844   0.00012   0.00000   0.00139   0.00139   3.11982
   D26       -0.00153   0.00006   0.00000   0.00098   0.00099  -0.00054
   D27        2.17310  -0.00003   0.00000  -0.00044  -0.00044   2.17266
   D28       -0.99463  -0.00010   0.00000  -0.00125  -0.00124  -0.99588
   D29       -0.99077   0.00000   0.00000  -0.00009  -0.00010  -0.99087
   D30        2.12468  -0.00006   0.00000  -0.00090  -0.00091   2.12378
   D31       -3.13520  -0.00005   0.00000  -0.00058  -0.00058  -3.13577
   D32       -0.07044  -0.00006   0.00000  -0.00070  -0.00070  -0.07114
   D33        0.03202   0.00002   0.00000   0.00021   0.00021   0.03223
   D34        3.09678   0.00001   0.00000   0.00009   0.00009   3.09687
   D35       -3.13380   0.00005   0.00000   0.00059   0.00059  -3.13321
   D36       -0.00422   0.00004   0.00000   0.00047   0.00047  -0.00375
   D37       -0.01752  -0.00002   0.00000  -0.00020  -0.00020  -0.01772
   D38        3.11206  -0.00003   0.00000  -0.00031  -0.00031   3.11174
   D39       -0.02382  -0.00001   0.00000  -0.00009  -0.00009  -0.02392
   D40        3.07685  -0.00000   0.00000  -0.00001  -0.00001   3.07685
   D41       -3.08701   0.00000   0.00000   0.00003   0.00003  -3.08698
   D42        0.01367   0.00001   0.00000   0.00012   0.00012   0.01379
   D43        2.44259  -0.00000   0.00000  -0.00005  -0.00005   2.44254
   D44       -0.77716  -0.00001   0.00000  -0.00016  -0.00016  -0.77732
   D45       -0.00607   0.00001   0.00000   0.00007   0.00007  -0.00600
   D46       -3.13671  -0.00001   0.00000  -0.00016  -0.00016  -3.13687
   D47       -3.13556   0.00002   0.00000   0.00019   0.00019  -3.13537
   D48        0.01699  -0.00000   0.00000  -0.00005  -0.00005   0.01694
   D49       -0.00006  -0.00000   0.00000  -0.00004  -0.00004  -0.00010
   D50        3.13374   0.00001   0.00000   0.00007   0.00007   3.13381
   D51       -3.10024  -0.00001   0.00000  -0.00013  -0.00013  -3.10037
   D52        0.03356  -0.00000   0.00000  -0.00002  -0.00002   0.03354
   D53        0.01504   0.00000   0.00000   0.00005   0.00005   0.01509
   D54       -3.11871  -0.00000   0.00000  -0.00006  -0.00006  -3.11876
   D55       -3.13757   0.00002   0.00000   0.00029   0.00029  -3.13728
   D56        0.01187   0.00002   0.00000   0.00018   0.00018   0.01205
   D57       -0.07712   0.00001   0.00000   0.00010   0.00010  -0.07702
   D58        3.07246   0.00002   0.00000   0.00016   0.00016   3.07262
[...]
 0000186,0.00000875,-0.00003218,-0.00009273,0.00009364,-0.00005295,-0.0
 0003467,-0.00003510,-0.00000456,-0.00020822,-0.00008303,-0.00043844,0.
 00023562,-0.00022182,-0.00026321,0.00006038,-0.00004694,0.00017231,-0.
 00009974,-0.00000223,-0.00002747,0.00000502,0.00003544,-0.00005000,0.0
 0001616,-0.00000979,0.00000551,0.00002095,-0.00000327,-0.00001996,0.00
 001483,-0.00001872,0.00001024,-0.00000231,0.00001057,0.15241787,-0.142
 39572,-0.02089811,-0.16688059,0.46196576,0.02660661,-0.02076321,-0.009
 16269,0.00270289,0.00160673,0.00007523,0.00024025,-0.00073187,-0.00051
 165,-0.00009979,0.00013469,0.00046329,0.00064705,-0.00032088,-0.000636
 14,-0.00071418,-0.00421142,0.00101679,-0.00062898,-0.00023343,0.000662
 37,-0.00004242,0.00006332,-0.00013078,-0.00007291,0.00001978,-0.000026
 98,0.00032162,0.00033103,0.00032144,0.00009890,0.00008024,0.00021375,0
 .00020753,0.00000861,-0.00045676,0.00001139,-0.00001564,-0.00001203,0.
 00001662,-0.00003894,-0.00016501,-0.00002303,-0.00002883,0.00001913,-0
 .00000058,0.00000144,-0.00001881,-0.00000505,-0.00002700,0.00000916,-0
 .00002804,0.00000083,0.00004041,0.00004209,-0.00017601,-0.00031040,0.0
 0050270,0.00025586,0.00003833,-0.00006721,0.00001736,-0.00006766,0.000
 02797,-0.00003805,0.00000985,-0.00000628,0.00000798,0.00001187,-0.0000
 1002,0.00000445,0.00000056,0.00000378,0.00000354,-0.00000409,-0.000007
 60,0.00000337,-0.00000357,0.00000341,0.00000243,0.00000467,-0.05042514
 ,-0.00675779,-0.07580022,0.09734197,0.18766167,0.37707790,0.00332557,-
 0.00804329,-0.00148288,0.00044441,0.00020662,0.00071481,-0.00028551,0.
 00055609,0.00031555,0.00058554,0.00060281,-0.00003480,-0.00010401,-0.0
 0093066,-0.00050982,-0.00112899,0.00092619,0.00137178,0.00015965,0.000
 49039,-0.00057855,0.00000052,0.00005145,0.00003179,0.00001851,0.000028
 95,-0.00005225,0.00034036,0.00021021,0.00000482,0.00002285,-0.00000815
 ,0.00005298,-0.00013586,0.00001323,-0.00015338,0.00000408,0.00003034,-
 0.00000137,0.00001617,-0.00003171,0.00001457,0.00001667,-0.00001507,0.
 00001533,-0.00000204,-0.00000518,-0.00000939,-0.00000921,-0.00002669,-
 0.00000279,0.00000003,-0.00000560,0.00000208,-0.00004127,0.00004047,0.
 00002381,-0.00002590,-0.00001199,0.00001304,-0.00006606,0.00000253,0.0
 0001366,0.00005752,-0.00003222,-0.00000490,-0.00001479,-0.00000115,0.0
 0001201,-0.00001263,0.00000527,-0.00000384,-0.00000116,0.00000655,0.00
 000147,-0.00000276,0.00000336,-0.00000523,0.00000188,-0.00000468,0.000
 00158,-0.03663965,-0.00188089,-0.02614349,-0.15507434,-0.06231189,-0.0
 9456371,0.17942661,-0.00004781,-0.00373722,0.00587408,0.00053459,0.000
 33177,0.00059428,-0.00021862,-0.00031772,-0.00056400,-0.00038350,0.000
 19010,0.00024088,-0.00001433,0.00020098,-0.00031298,-0.00049309,0.0007
 9922,0.00011811,0.00068111,-0.00117544,0.00020872,0.00010735,-0.000092
 51,0.00008474,0.00001623,-0.00001662,0.00004474,0.00042611,0.00014355,
 0.00009967,-0.00024734,0.00002298,-0.00010555,-0.00005252,-0.00002481,
 -0.00025916,0.00004796,0.00011950,-0.00001521,-0.00003335,-0.00015915,
 -0.00003683,0.00009977,-0.00004764,0.00005971,0.00000980,-0.00000505,-
 0.00000630,-0.00001130,-0.00000826,-0.00001121,0.00001142,0.00000547,0
 .00001232,-0.00001263,0.,0.00005716,0.00002445,-0.00001476,0.00014700,
 0.00000387,-0.00008378,0.00004920,0.00001005,0.00001129,-0.00000946,0.
 00000230,0.00000456,0.00001369,0.00000305,-0.00000446,-0.00001230,0.00
 000399,-0.00000412,0.00000266,-0.00000072,-0.00000300,0.00000066,-0.00
 000051,-0.00000322,0.00000409,0.01203317,0.01917103,-0.00270211,-0.063
 01558,-0.10171546,-0.06910453,0.06376247,0.09243589,0.00481506,0.00623
 403,-0.00235050,-0.00217924,0.00127749,0.00089677,0.00124050,0.0000424
 2,-0.00065830,-0.00060955,-0.00047031,0.00004474,0.00019225,0.00064611
 ,0.00045767,0.00065493,-0.00089797,-0.00079785,0.00051728,0.00034645,-
 0.00009127,-0.00004066,0.00013966,0.00012223,0.00002393,-0.00000449,0.
 00000647,-0.00025219,-0.00015146,0.00007047,0.00024982,-0.00006163,0.0
 0011555,-0.00012964,-0.00000665,0.00011639,-0.00005334,-0.00009547,0.0
 0002647,0.00006019,0.00015916,0.00009791,-0.00008200,0.00005722,-0.000
 04485,-0.00001001,0.00000206,-0.00000435,0.00001061,-0.00000620,-0.000
 01949,-0.00000502,-0.00000908,-0.00001704,-0.00001471,0.00003739,-0.00
 003577,-0.00006478,0.00000490,-0.00010934,-0.00003601,0.00011364,-0.00
 002151,0.00003138,-0.00003101,0.00000078,-0.00001202,-0.00001076,-0.00
 001548,-0.00001438,0.00001055,0.00001432,-0.00000643,0.00001157,-0.000
 00082,0.00000111,0.00000550,-0.00000588,0.00000148,0.,-0.00000483,-0.0
 1148643,-0.01296352,0.01477921,-0.09614171,-0.06658624,-0.15092959,0.1
 1550307,0.08375004,0.14303388,0.00078477,0.00162105,-0.00404052,-0.001
 16406,0.00086047,0.00117579,0.00058244,0.00022011,0.00018875,-0.000085
 52,0.00022078,0.00006998,-0.00006653,-0.00019204,0.00010783,0.00007826
 ,0.00089657,0.00048061,0.00025590,0.00029545,-0.00033139,-0.00001470,0
 .00019293,0.00009668,-0.00000670,0.00004227,-0.00000499,0.00006630,0.0
 0023763,-0.00017927,0.00018847,-0.00016142,0.00009378,-0.00010350,-0.0
 0010509,0.00001662,-0.00008034,-0.00007261,0.00002301,0.00006777,0.000
 05644,0.00002211,-0.00011312,-0.00001841,-0.00006076,-0.00003607,-0.00
 000918,0.00000484,-0.00000008,-0.00003292,0.00001921,-0.00002130,-0.00
 001860,-0.00000403,-0.00008391,0.00009742,0.00007755,-0.00002283,0.000
 03797,-0.00006208,-0.00011050,0.00004572,-0.00005061,0.00009657,-0.000
 04801,-0.00001045,-0.00000958,0.00000213,0.00001807,-0.00003184,0.0000
 0667,-0.00000357,0.00000441,0.00001232,-0.00000415,-0.00001252,0.00001
 066,-0.00001104,0.00000570,0.00000205,0.00000698,-0.02322083,0.0347563
 9,0.02419422,-0.09117448,0.01980072,0.01096394,0.00900599,-0.01558771,
 -0.01356052,0.58132513,0.00164403,0.01122552,-0.00570345,-0.00117681,0
 .00027317,0.00031276,0.00048827,-0.00001423,0.00029924,-0.00021553,-0.
 00028114,-0.00006876,0.00067583,0.00051467,0.00062717,0.00113630,-0.00
 196095,-0.00084676,-0.00003487,0.00005586,-0.00018930,-0.00003293,0.00
 004910,0.00002678,-0.00003475,0.00000958,-0.00005934,-0.00043582,-0.00
 021073,-0.00022855,0.00010862,-0.00002951,0.00001332,-0.00003921,0.000
 03913,0.00019020,-0.00002182,-0.00007523,0.00002704,0.00002871,0.00009
 072,0.00003769,-0.00006008,0.00003169,-0.00003660,-0.00000111,0.000002
 12,0.00000847,0.00000787,0.00000873,-0.00001028,0.00000367,0.00000124,
 -0.00000881,0.00002912,-0.00009848,-0.00008670,0.00000327,-0.00002309,
 -0.00010634,0.00004174,0.00003827,-0.00001877,-0.00003514,0.00001418,0
 .00000253,0.00000273,-0.00000426,-0.00001367,0.00000686,-0.00000146,0.
 00000751,-0.00000292,-0.00000115,-0.00000140,0.00000313,-0.00000082,0.
 00000331,-0.00000121,0.00000291,-0.00000285,0.01787866,-0.01701939,-0.
 00533019,0.02401020,-0.16721357,-0.07154209,0.00544320,-0.00458309,-0.
 00815484,0.01881526,0.51796717,-0.00585922,-0.00721718,0.00932808,0.00
 121355,-0.00119838,-0.00089308,-0.00083419,0.00013077,0.00004558,0.000
 47416,0.00032485,-0.00000597,-0.00071964,-0.00054207,-0.00057939,-0.00
 063916,0.00195283,0.00135369,0.00003113,-0.00003696,-0.00007680,0.0000
 4741,-0.00009000,-0.00003166,0.00002243,0.00000018,0.00001306,0.000368
 02,0.00015651,0.00013681,-0.00016403,0.00007343,-0.00006711,0.00008853
 ,0.00001606,-0.00006023,0.00002827,0.00006914,-0.00004608,-0.00003380,
 -0.00013838,-0.00005574,0.00004813,-0.00004108,0.00002195,0.00000382,-
 0.00000180,0.00000204,-0.00000883,-0.00000327,0.00002183,0.00000104,0.
 00000444,0.00001175,-0.00003298,0.00011333,0.00008834,0.00003267,-0.00
 001722,0.00002968,0.00000718,-0.00007526,0.00000989,-0.00002087,0.0000
 1856,0.00000419,0.00000773,0.00000937,0.00001108,0.00000768,-0.0000072
 9,-0.00000932,0.00000384,-0.00000760,0.00000075,-0.00000093,-0.0000030
 5,0.00000386,-0.00000042,0.00000004,0.00000213,0.01122826,0.00353811,0
 .00194791,0.01394974,-0.07397295,-0.13470762,0.00553958,-0.01545973,-0
 .00494092,0.03551003,-0.00829678,0.53918834,0.00045255,0.00136669,-0.0
 0050581,-0.00041391,0.00019770,0.00010604,0.00011246,0.00008494,0.0000
 2123,-0.00000013,-0.00003225,-0.00001154,0.00002014,0.00001998,0.00007
 583,0.00014891,-0.00008714,-0.00006953,0.00001125,-0.00000291,-0.00000
 628,-0.00000381,0.00003533,0.00003137,-0.00000829,0.00001149,-0.000008
 09,-0.00004773,-0.00003241,-0.00001883,0.00004608,-0.00004766,0.000021
 48,-0.00000837,0.00000589,0.00002782,-0.00001023,0.00000449,0.00000590
 ,-0.00001538,0.00002560,0.00001017,0.00000500,0.00000399,0.00000667,-0
 .00000612,0.00000082,-0.00000289,0.00000588,0.00000388,-0.00001257,-0.
 00000142,-0.00000381,-0.00000470,-0.00000595,0.00000382,0.00000620,-0.
 00001248,-0.00000121,-0.00003573,-0.00002523,0.00003800,-0.00001578,0.
 00001896,-0.00001773,0.00000186,-0.00000224,-0.00000055,-0.00000177,-0
 .00001047,0.00000229,0.00000330,-0.00000046,0.00000479,-0.00000137,-0.
 00000199,0.00000344,-0.00000322,0.00000176,0.00000168,-0.00000061,0.00
 038288,0.00050476,0.00246179,-0.01005693,-0.00040548,0.00492442,0.0002
 7598,0.00063693,-0.00001536,-0.19433759,-0.06152305,0.11457008,0.21004
 703,-0.00051248,-0.00217243,0.00183102,0.00063598,-0.00021615,-0.00022
 886,-0.00016174,-0.00002606,-0.00010754,0.00006709,-0.00005656,-0.0000
 3016,-0.00013778,-0.00005339,-0.00011566,-0.00031887,0.00011082,0.0000
 1252,-0.00004960,-0.00005051,0.00003965,0.00000143,-0.00006312,-0.0000
 3673,0.00000827,-0.00001393,0.00000548,0.00005682,-0.00005168,0.000082
 01,-0.00008954,0.00005852,-0.00002199,0.00008519,0.00004548,-0.0000458
 3,0.00002725,0.00005052,-0.00001508,-0.00003569,-0.00004947,-0.0000047
 7,0.00006466,0.00000572,0.00003449,0.00001072,0.00000622,-0.00000636,0
 .00001118,0.00002525,-0.00001990,0.00000599,0.00000444,0.00000310,0.00
 002246,-0.00000781,-0.00000512,0.00000577,-0.00003874,0.00001683,0.000
 02471,-0.00000825,0.00001697,-0.00002440,0.00001174,0.00000236,0.00000
 185,-0.00000214,-0.00000526,0.00000904,-0.00000056,0.00000117,-0.00000
 210,-0.00000237,0.00000137,0.00000330,-0.00000251,0.00000243,-0.000001
 61,-0.00000093,-0.00000233,0.00109571,-0.00163525,-0.00256162,0.023382
 47,0.00944040,-0.01580638,-0.00117029,0.00005230,0.00121104,-0.0592512
 5,-0.06701334,0.04130206,0.06234710,0.07284905,-0.00021454,-0.00085144
 ,0.00101453,0.00048726,-0.00019870,-0.00010415,-0.00007551,0.00002792,
 -0.00009555,0.00005932,-0.00008056,-0.00005814,-0.00008592,-0.00006042
 ,-0.00004868,-0.00026748,-0.00004042,-0.00005808,-0.00000704,-0.000017
 52,0.00003928,-0.00000459,-0.00005505,-0.00002697,0.00001174,-0.000019
 43,0.00000315,0.00004109,-0.00004474,0.00005095,-0.00009497,0.00006556
 ,-0.00001857,0.00004467,0.00002535,-0.00005205,0.00003496,0.00003356,-
 0.00001354,-0.00001761,-0.00003744,-0.00000530,0.00004667,0.00000200,0
 .00002379,0.00001400,0.00000307,-0.00000162,-0.00000168,0.00001286,-0.
 00000734,0.00000894,0.00000813,0.00000457,0.00002623,-0.00001408,-0.00
 001305,0.00000253,-0.00001319,0.00003737,0.00005216,-0.00002171,0.0000
 1492,-0.00004746,0.00002324,0.00000495,0.00000505,0.00000002,-0.000007
 25,0.00001447,-0.00000421,0.00000155,-0.00000158,-0.00000618,0.0000007
 3,0.00000478,-0.00000412,0.00000565,-0.00000248,0.00000018,-0.00000247
 ,-0.00018967,-0.00069669,-0.00177594,0.01411667,0.00649816,-0.00926592
 ,-0.00093304,-0.00061893,0.00071185,0.11557965,0.04275681,-0.13854015,
 -0.12917978,-0.04737021,0.14654708,-0.00003380,0.00027764,0.00029121,-
 0.00008706,0.00015220,-0.00000994,0.00003649,-0.00005568,-0.00007959,-
 0.00008050,-0.00005475,0.00001339,0.00001930,0.00011907,0.00001971,0.0
 0006266,-0.00012262,-0.00013712,-0.00002084,-0.00000963,0.00004548,0.0
 0000058,-0.00001029,-0.00000063,0.00000338,-0.00000830,0.00000785,-0.0
 0002268,-0.00002788,0.00001715,-0.00001510,0.00001939,-0.00000888,0.00
 001230,0.00000523,-0.00000630,0.00000404,-0.00000288,-0.00000273,0.,-0
 .00001381,0.00000881,-0.00000074,0.00000398,0.00000004,0.00000373,0.00
 000042,0.00000082,-0.00000009,0.00000508,-0.00000351,0.00000393,0.0000
 0246,0.00000017,0.00000757,-0.00000706,-0.00000684,-0.00000359,-0.0000
 0579,0.00000399,0.00001750,-0.00000675,0.00000622,-0.00001313,0.000008
 87,0.00000033,0.00000128,-0.00000075,-0.00000246,0.00000477,-0.0000008
 3,-0.00000007,-0.00000068,-0.00000185,0.00000083,0.00000210,-0.0000015
 7,0.00000163,-0.00000106,-0.00000066,-0.00000083,0.00111287,-0.0005302
 0,0.00035767,0.00948358,0.00391400,0.00711210,-0.00021784,0.00191552,0
 .00095178,-0.20540027,-0.07176336,-0.11768427,-0.01582311,-0.00665205,
 -0.01403730,0.21780306,0.00033022,-0.00012628,0.00025581,0.00000143,0.
 00006498,0.00013497,0.00003680,0.00005968,-0.00003974,0.00002558,0.000
 01339,-0.00000107,-0.00001824,-0.00006032,-0.00003224,-0.00010336,0.00
 007704,0.00007787,0.00003364,0.00006083,-0.00005986,-0.00000609,0.0000
 0874,-0.00000066,0.00000528,-0.00000115,-0.00000473,0.00003854,-0.0000
 0011,0.00000312,-0.00001292,0.00002052,-0.00000199,-0.00000535,0.00001
 345,-0.00002492,0.00000746,0.00000843,0.00000069,-0.00000437,-0.000004
 19,-0.00000832,0.00001119,-0.00000103,0.00000455,0.00000469,0.00000013
 ,-0.00000235,-0.00000176,-0.00000610,0.00000889,-0.00000263,0.00000013
 ,0.00000202,-0.00000172,0.00000590,-0.00000174,0.00000110,-0.00000471,
 0.00001224,-0.00000084,-0.00001065,0.00002165,0.00000718,-0.00000009,-
 0.00000419,-0.00000426,-0.00000270,0.00000089,0.00000306,0.00000250,-0
 .00000040,-0.00000141,0.00000021,0.00000196,0.00000160,-0.00000128,-0.
 00000020,-0.00000083,-0.00000335,-0.00000048,-0.00105278,0.00243485,0.
 00262274,-0.02285791,-0.01016030,-0.01617078,0.00252611,-0.00247972,-0
 .00336866,-0.06814215,-0.08198019,-0.05128729,-0.00598540,-0.00390549,
 -0.00527358,0.07621777,0.08524739,0.00045115,0.00024186,-0.00000755,-0
 .00004507,0.00003352,0.00020929,0.00003549,0.00011218,0.00001355,0.000
 05805,0.00001445,-0.00002418,0.00001325,-0.00006706,-0.00003001,-0.000
 11389,-0.00000941,0.00002807,0.00004060,0.00005821,-0.00008559,-0.0000
 0387,0.00000835,0.00000921,0.00000396,0.00000274,-0.00000908,0.0000121
 6,-0.00007614,-0.00001575,-0.00000363,-0.00002522,0.00000320,-0.000013
 22,0.00003964,0.00002370,0.00000023,0.00003475,0.00000296,-0.00001598,
 0.00001834,0.00002152,0.00004558,0.00001435,0.00002727,-0.00000067,0.0
 0000468,-0.00000674,0.00001333,0.00001938,-0.00003396,0.00000331,-0.00
 000214,-0.00000442,0.00000464,-0.00000658,-0.00000298,-0.00001029,-0.0
 0003471,-0.00005341,-0.00001421,0.00003709,-0.00000083,0.00001156,-0.0
 0001254,0.00000129,-0.00000313,-0.00000372,-0.00000475,-0.00000694,0.0
 0000298,0.00000348,-0.00000248,0.00000467,-0.00000038,0.00000025,0.000
 00275,-0.00000246,0.00000059,0.00000037,-0.00000198,-0.00041770,0.0027
 6461,0.00152102,-0.01623141,-0.00712780,-0.01280271,0.00134216,-0.0034
 8018,-0.00036386,-0.11447625,-0.05250196,-0.13673681,0.01492172,0.0070
 1431,0.01363878,0.12688787,0.06016759,0.14454816,-0.00066857,-0.000570
 74,0.00151166,0.00002500,-0.00007280,-0.00010178,-0.00011124,-0.000003
 15,-0.00004825,0.00001407,0.00003529,0.00003501,-0.00009858,-0.0000220
 1,-0.00005293,0.00007153,0.00029739,0.00013271,0.00000984,-0.00004252,
 0.00001056,0.00000746,-0.00000023,-0.00000071,-0.00000022,0.00000106,0
 .00000627,0.00010669,0.00006761,0.00004633,-0.00002717,0.00001174,-0.0
 0000616,-0.00009701,-0.00002467,-0.00006914,0.00001837,-0.00000337,-0.
 00000168,0.00001380,-0.00001673,-0.00002212,-0.00000843,-0.00001810,-0
 .00000117,0.00000444,-0.00000652,0.00000259,-0.00002386,-0.00002995,0.
 00002459,0.00000159,0.00000260,0.00000484,-0.00001502,0.00002343,0.000
 01397,0.00002513,0.00004895,0.00006498,0.00000687,-0.00003999,0.000015
 40,0.00000142,0.00000670,-0.00000361,-0.00000040,0.00000260,0.00000672
 ,0.00000449,-0.00000210,-0.00000464,0.00000215,-0.00000333,0.00000127,
 0.,-0.00000252,0.00000138,-0.00000050,-0.00000200,0.00000217,0.0009914
 6,0.00271288,0.00051116,-0.00729637,0.00880614,-0.00508030,0.00005968,
 -0.00021112,0.00046063,-0.07636544,0.06505113,-0.05718498,0.00926295,-
 0.01945958,0.01461045,-0.00685866,0.01895038,-0.01248720,0.08094455,0.
 00104112,0.00152704,-0.00136471,0.00007536,0.00015021,0.00008635,0.000
 15257,-0.00006737,-0.00007699,-0.00009018,-0.00014913,-0.00003939,0.00
 019979,0.00013122,0.00011562,-0.00013061,-0.00059759,-0.00043690,-0.00
 002494,0.00004660,0.00003563,-0.00001560,-0.00004088,-0.00002157,0.000
 00624,-0.00001991,-0.00001364,-0.00010157,-0.00011139,-0.00002042,-0.0
 0005776,0.00005551,-0.00000473,0.00012300,0.00003092,-0.00001500,0.000
 01957,0.00002032,-0.00000476,-0.00002726,-0.00001977,-0.00000474,0.000
 03618,0.00000995,0.00001500,0.00001172,0.00000622,-0.00000251,0.000011
 26,0.00002887,-0.00001034,0.00000375,0.00000717,0.00000367,0.00004025,
 -0.00005800,-0.00004034,0.00001557,-0.00003845,0.00002577,0.00005303,0
 .00000426,0.00000465,-0.00004927,0.00002002,0.00000684,0.00000505,-0.0
 0000189,-0.00001248,0.00001250,-0.00000233,0.00000544,-0.00000305,-0.0
 0000446,0.00000009,0.00000528,-0.00000298,0.00000496,-0.00000231,0.000
 00112,-0.00000414,-0.00079736,-0.00371339,-0.00107595,0.01052141,-0.01
 685338,0.01576352,-0.00042678,0.00098738,-0.00123094,0.06540839,-0.189
 81344,0.11068658,0.00283601,-0.00728979,0.00597177,-0.00336491,0.01072
 952,-0.00724938,-0.07548649,0.20502781,0.00098808,0.00146907,-0.001092
 46,-0.00003793,0.00006413,0.00005944,0.00007074,-0.00003937,-0.0000186
 1,-0.00005435,-0.00007094,-0.00002411,0.00018011,0.00008476,0.00009748
 ,0.00007531,-0.00046457,-0.00032742,-0.00002388,-0.00000221,0.00000936
 ,-0.00000906,-0.00001204,-0.00001198,-0.00000156,-0.00000687,-0.000007
 26,-0.00009288,-0.00009486,-0.00001954,-0.00001105,0.00002647,-0.00001
 372,0.00004255,0.00003418,0.00004239,0.00000519,0.00000424,0.00000234,
 -0.00001551,0.00001459,-0.00000560,0.00001193,0.00000577,0.00000439,0.
 00000490,0.00000328,-0.00000121,0.00000832,0.00000769,0.00000102,-0.00
 000174,0.00000105,-0.00000147,0.00002121,-0.00004076,-0.00002998,0.000
 00141,-0.00002454,-0.00001716,0.00001208,-0.00000010,0.00001299,-0.000
 00941,0.00000597,-0.00000189,-0.00000081,-0.00000322,-0.00000382,0.000
 00557,0.00000128,0.00000184,-0.00000187,-0.00000051,0.00000128,0.00000
 226,-0.00000158,0.00000088,-0.00000119,-0.00000148,-0.00000148,0.00054
 406,-0.00230099,-0.00114789,0.00807878,-0.01556802,0.01504788,-0.00049
 463,0.00133671,-0.00008305,-0.05585000,0.10889460,-0.13547006,-0.00730
 202,0.01480700,-0.01200437,-0.00374659,0.01296824,-0.00986404,0.057602
 00,-0.12109698,0.14486584\\-0.00002802,0.00001542,0.00002365,0.0000120
 5,0.00001093,0.00000199,0.00000029,-0.00000470,-0.00000886,-0.00000549
 ,-0.00000381,0.00000012,0.00000261,0.00000641,0.00000222,-0.00000086,0
 .00000584,-0.00000593,-0.00000071,-0.00000286,0.00000056,-0.00000349,0
 .00000216,0.00000135,-0.00000554,-0.00000114,0.00000192,0.00000514,-0.
 00001005,0.00000704,-0.00000146,0.00000143,-0.00000017,0.00000437,0.00
 000450,-0.00000484,0.00000032,-0.00000542,-0.00000370,0.,-0.00000157,-
 0.00000255,0.00000380,-0.00000097,0.00000497,0.00000269,-0.00000336,-0
 .00000087,0.00000302,-0.00000045,-0.00000050,0.00000376,-0.00000330,-0
 .00000190,0.00000063,0.00000079,0.00000094,0.00000215,0.00000050,0.000
 00062,0.00000009,-0.00000317,-0.00000100,-0.00000437,-0.00000060,-0.00
 000048,0.00000007,-0.00000285,0.00000055,-0.00000268,-0.00000387,-0.00
 000017,-0.00000250,-0.00000404,-0.00000014,-0.00000183,-0.00000370,-0.
 00000049,-0.00000230,-0.00000262,-0.00000007,-0.00000845,-0.00000396,-
 0.00001440,0.00001263,0.00001349,0.00001326,-0.00000955,0.00000447,-0.
 00000611,0.00002590,-0.00001927,-0.00001903,-0.00000145,0.00000276,0.0
 0000472,-0.00000393,0.00000981,0.00000634,0.00000312,0.00000318,0.0000
 0098\\\@
 The archive entry for this job was punched.


 FORGIVE MY NONSENSE AS I ALSO FORGIVE THOSE WHO THINK THEY TALK SENSE

                                                       -- ROBERT FROST
 Job cpu time:       0 days  4 hours  8 minutes 51.8 seconds.
 Elapsed time:       0 days  0 hours  3 minutes 55.8 seconds.
 File lengths (MBytes):  RWF=    484 Int=      0 D2E=      0 Chk=     19 Scr=      1
 Normal termination of Gaussian 16 at Mon Sep 12 11:22:28 2022.
