 Entering Gaussian System, Link 0=/home/rong/g16/g16
 Input=/home/rong/g16/102121/biphenylNMeCH2CH3.gjf
 Output=/home/rong/g16/102121/biphenylNMeCH2CH3.log
 Initial command:
 /home/rong/g16/l1.exe "/tmp/Gau-93839.inp" -scrdir="/tmp/"
 Default is to use a total of   8 processors:
                                8 via shared-memory
                                1 via Linda
 Entering Link 1 = /home/rong/g16/l1.exe PID=     93841.
  
 Copyright (c) 1988-2019, Gaussian, Inc.  All Rights Reserved.
  
 This is part of the Gaussian(R) 16 program.  It is based on
 the Gaussian(R) 09 system (copyright 2009, Gaussian, Inc.),
 the Gaussian(R) 03 system (copyright 2003, Gaussian, Inc.),
 the Gaussian(R) 98 system (copyright 1998, Gaussian, Inc.),
 the Gaussian(R) 94 system (copyright 1995, Gaussian, Inc.),
 the Gaussian 92(TM) system (copyright 1992, Gaussian, Inc.),
 the Gaussian 90(TM) system (copyright 1990, Gaussian, Inc.),
 the Gaussian 88(TM) system (copyright 1988, Gaussian, Inc.),
 the Gaussian 86(TM) system (copyright 1986, Carnegie Mellon
 University), and the Gaussian 82(TM) system (copyright 1983,
 Carnegie Mellon University). Gaussian is a federally registered
 trademark of Gaussian, Inc.
  
 This software contains proprietary and confidential information,
 including trade secrets, belonging to Gaussian, Inc.
  
 This software is provided under written license and may be
 used, copied, transmitted, or stored only in accord with that
 written license.
  
 The following legend is applicable only to US Government
 contracts under FAR:
  
                    RESTRICTED RIGHTS LEGEND
  
 Use, reproduction and disclosure by the US Government is
 subject to restrictions as set forth in subparagraphs (a)
 and (c) of the Commercial Computer Software - Restricted
 Rights clause in FAR 52.227-19.
  
 Gaussian, Inc.
 340 Quinnipiac St., Bldg. 40, Wallingford CT 06492
  
  
 ---------------------------------------------------------------
 Warning -- This program may not be used in any manner that
 competes with the business of Gaussian, Inc. or will provide
 assistance to any competitor of Gaussian, Inc.  The licensee
 of this program is prohibited from giving any competitor of
 Gaussian, Inc. access to this program.  By using this program,
 the user acknowledges that Gaussian, Inc. is engaged in the
 business of creating and licensing software in the field of
 computational chemistry and represents and warrants to the
 licensee that it is not a competitor of Gaussian, Inc. and that
 it will not use this program in any manner prohibited above.
 ---------------------------------------------------------------
  

 Cite this work as:
 Gaussian 16, Revision C.01,
 M. J. Frisch, G. W. Trucks, H. B. Schlegel, G. E. Scuseria, 
 M. A. Robb, J. R. Cheeseman, G. Scalmani, V. Barone, 
 G. A. Petersson, H. Nakatsuji, X. Li, M. Caricato, A. V. Marenich, 
 J. Bloino, B. G. Janesko, R. Gomperts, B. Mennucci, H. P. Hratchian, 
 J. V. Ortiz, A. F. Izmaylov, J. L. Sonnenberg, D. Williams-Young, 
 F. Ding, F. Lipparini, F. Egidi, J. Goings, B. Peng, A. Petrone, 
 T. Henderson, D. Ranasinghe, V. G. Zakrzewski, J. Gao, N. Rega, 
 G. Zheng, W. Liang, M. Hada, M. Ehara, K. Toyota, R. Fukuda, 
 J. Hasegawa, M. Ishida, T. Nakajima, Y. Honda, O. Kitao, H. Nakai, 
 T. Vreven, K. Throssell, J. A. Montgomery, Jr., J. E. Peralta, 
 F. Ogliaro, M. J. Bearpark, J. J. Heyd, E. N. Brothers, K. N. Kudin, 
 V. N. Staroverov, T. A. Keith, R. Kobayashi, J. Normand, 
 K. Raghavachari, A. P. Rendell, J. C. Burant, S. S. Iyengar, 
 J. Tomasi, M. Cossi, J. M. Millam, M. Klene, C. Adamo, R. Cammi, 
 J. W. Ochterski, R. L. Martin, K. Morokuma, O. Farkas, 
 J. B. Foresman, and D. J. Fox, Gaussian, Inc., Wallingford CT, 2019.
 
 ******************************************
 Gaussian 16:  ES64L-G16RevC.01  3-Jul-2019
                24-Oct-2021 
 ******************************************
 %mem=15GB
 %chk=biphenylNMeCH2CH3.chk
 %nprocshared=8
 Will use up to    8 processors via shared memory.
 ----------------------------------------------------
 # opt freq b3lyp/6-31g(d) scrf=(smd,solvent=toluene)
 ----------------------------------------------------
 1/18=20,19=15,26=3,38=1/1,3;
 2/9=110,12=2,17=6,18=5,40=1/2;
 3/5=1,6=6,7=1,11=2,25=1,30=1,70=32201,71=1,72=13,74=-5/1,2,3;
 4//1;
 5/5=2,38=5,53=13/2;
 6/7=2,8=2,9=2,10=2,28=1/1;
 7//1,2,3,16;
 1/18=20,19=15,26=3/3(2);
 2/9=110/2;
 99//99;
 2/9=110/2;
 3/5=1,6=6,7=1,11=2,25=1,30=1,70=32205,71=1,72=13,74=-5/1,2,3;
 4/5=5,16=3,69=1/1;
 5/5=2,38=5,53=13/2;
 7//1,2,3,16;
 1/18=20,19=15,26=3/3(-5);
 2/9=110/2;
 6/7=2,8=2,9=2,10=2,19=2,28=1/1;
 99/9=1/99;
 -----------------
 biphenylNMeCH2CH3
 -----------------
 Symbolic Z-matrix:
 Charge =  0 Multiplicity = 1
 C                    -1.54939  -0.11762  -0.00539 
 C                    -0.14698  -0.11762  -0.00539 
 C                     0.55656   1.08499  -0.00539 
 C                    -0.12952   2.29929  -0.00815 
 C                    -1.52417   2.30738  -0.0095 
 C                    -2.23213   1.10733  -0.00669 
 C                    -2.28982  -1.37807  -0.00413 
 C                    -1.85845  -2.45608  -0.79062 
 C                    -2.5666   -3.65599  -0.78888 
 C                    -3.70958  -3.79505  -0.0018 
 C                    -4.14403  -2.72789   0.78405 
 C                    -3.44079  -1.52506   0.78347 
 H                     1.65642   1.07491  -0.00212 
 H                     0.42745   3.24733  -0.00925 
 H                    -2.06847   3.26317  -0.01389 
 H                    -3.33244   1.11809  -0.01334 
 H                    -2.22246  -4.49478  -1.4116 
 H                    -4.26648  -4.74314  -0.00089 
 H                    -5.04377  -2.83478   1.40761 
 H                    -3.78376  -0.68736   1.40915 
 N                    -0.65879  -2.31241  -1.62792 
 N                     0.58116  -1.39458   0.00487 
 C                    -0.02809  -3.62766  -1.81021 
 H                    -0.61254  -4.21241  -2.48946 
 H                     0.9572   -3.49881  -2.20708 
 H                     0.03016  -4.12912  -0.86679 
 C                    -1.03853  -1.76523  -2.93838 
 H                    -0.21365  -1.2228   -3.351 
 H                    -1.87492  -1.10815  -2.82174 
 C                    -1.41977  -2.91836  -3.88523 
 H                    -1.80788  -2.51691  -4.79797 
 H                    -0.5525   -3.50872  -4.09555 
 H                    -2.1638   -3.53066  -3.42005 
 C                     1.74406  -1.30274  -0.88962 
 H                     2.09589  -2.28677  -1.11939 
 H                     1.46039  -0.80529  -1.79348 
 C                     2.86425  -0.50622  -0.19511 
 H                     3.77621  -1.06448  -0.2349 
 H                     2.99764   0.43086  -0.69411 
 H                     2.59722  -0.3316    0.82621 
 C                     1.03614  -1.68824   1.3715 
 H                     1.8688   -2.35916   1.33376 
 H                     1.3321   -0.77913   1.85196 
 H                     0.23869  -2.14016   1.92353 
 

 GradGradGradGradGradGradGradGradGradGradGradGradGradGradGradGradGradGrad
 Berny optimization.
 Initialization pass.
                           ----------------------------
                           !    Initial Parameters    !
                           ! (Angstroms and Degrees)  !
 --------------------------                            --------------------------
 ! Name  Definition              Value          Derivative Info.                !
 --------------------------------------------------------------------------------
 ! R1    R(1,2)                  1.4024         estimate D2E/DX2                !
 ! R2    R(1,6)                  1.4024         estimate D2E/DX2                !
 ! R3    R(1,7)                  1.4618         estimate D2E/DX2                !
 ! R4    R(2,3)                  1.3933         estimate D2E/DX2                !
 ! R5    R(2,22)                 1.47           estimate D2E/DX2                !
 ! R6    R(3,4)                  1.3947         estimate D2E/DX2                !
 ! R7    R(3,13)                 1.0999         estimate D2E/DX2                !
 ! R8    R(4,5)                  1.3947         estimate D2E/DX2                !
 ! R9    R(4,14)                 1.0995         estimate D2E/DX2                !
 ! R10   R(5,6)                  1.3933         estimate D2E/DX2                !
 ! R11   R(5,15)                 1.0999         estimate D2E/DX2                !
 ! R12   R(6,16)                 1.1004         estimate D2E/DX2                !
 ! R13   R(7,8)                  1.4024         estimate D2E/DX2                !
 ! R14   R(7,12)                 1.4024         estimate D2E/DX2                !
 ! R15   R(8,9)                  1.3933         estimate D2E/DX2                !
 ! R16   R(8,21)                 1.47           estimate D2E/DX2                !
 ! R17   R(9,10)                 1.3947         estimate D2E/DX2                !
 ! R18   R(9,17)                 1.0999         estimate D2E/DX2                !
 ! R19   R(10,11)                1.3947         estimate D2E/DX2                !
 ! R20   R(10,18)                1.0995         estimate D2E/DX2                !
 ! R21   R(11,12)                1.3933         estimate D2E/DX2                !
 ! R22   R(11,19)                1.0999         estimate D2E/DX2                !
 ! R23   R(12,20)                1.1004         estimate D2E/DX2                !
 ! R24   R(21,23)                1.47           estimate D2E/DX2                !
 ! R25   R(21,27)                1.47           estimate D2E/DX2                !
 ! R26   R(22,34)                1.47           estimate D2E/DX2                !
 ! R27   R(22,41)                1.47           estimate D2E/DX2                !
 ! R28   R(23,24)                1.07           estimate D2E/DX2                !
 ! R29   R(23,25)                1.07           estimate D2E/DX2                !
 ! R30   R(23,26)                1.07           estimate D2E/DX2                !
 ! R31   R(27,28)                1.07           estimate D2E/DX2                !
 ! R32   R(27,29)                1.07           estimate D2E/DX2                !
 ! R33   R(27,30)                1.54           estimate D2E/DX2                !
 ! R34   R(30,31)                1.07           estimate D2E/DX2                !
 ! R35   R(30,32)                1.07           estimate D2E/DX2                !
 ! R36   R(30,33)                1.07           estimate D2E/DX2                !
 ! R37   R(34,35)                1.07           estimate D2E/DX2                !
 ! R38   R(34,36)                1.07           estimate D2E/DX2                !
 ! R39   R(34,37)                1.54           estimate D2E/DX2                !
 ! R40   R(37,38)                1.07           estimate D2E/DX2                !
 ! R41   R(37,39)                1.07           estimate D2E/DX2                !
 ! R42   R(37,40)                1.07           estimate D2E/DX2                !
 ! R43   R(41,42)                1.07           estimate D2E/DX2                !
 ! R44   R(41,43)                1.07           estimate D2E/DX2                !
 ! R45   R(41,44)                1.07           estimate D2E/DX2                !
 ! A1    A(2,1,6)              119.1337         estimate D2E/DX2                !
 ! A2    A(2,1,7)              120.4315         estimate D2E/DX2                !
 ! A3    A(6,1,7)              120.4348         estimate D2E/DX2                !
 ! A4    A(1,2,3)              120.3281         estimate D2E/DX2                !
 ! A5    A(1,2,22)             119.6915         estimate D2E/DX2                !
 ! A6    A(3,2,22)             119.9788         estimate D2E/DX2                !
 ! A7    A(2,3,4)              120.2052         estimate D2E/DX2                !
 ! A8    A(2,3,13)             119.803          estimate D2E/DX2                !
 ! A9    A(4,3,13)             119.9917         estimate D2E/DX2                !
 ! A10   A(3,4,5)              119.7994         estimate D2E/DX2                !
 ! A11   A(3,4,14)             120.0995         estimate D2E/DX2                !
 ! A12   A(5,4,14)             120.1011         estimate D2E/DX2                !
 ! A13   A(4,5,6)              120.2051         estimate D2E/DX2                !
 ! A14   A(4,5,15)             119.9932         estimate D2E/DX2                !
 ! A15   A(6,5,15)             119.8017         estimate D2E/DX2                !
 ! A16   A(1,6,5)              120.3284         estimate D2E/DX2                !
 ! A17   A(1,6,16)             119.6937         estimate D2E/DX2                !
 ! A18   A(5,6,16)             119.9763         estimate D2E/DX2                !
 ! A19   A(1,7,8)              120.4316         estimate D2E/DX2                !
 ! A20   A(1,7,12)             120.4352         estimate D2E/DX2                !
 ! A21   A(8,7,12)             119.1332         estimate D2E/DX2                !
 ! A22   A(7,8,9)              120.3285         estimate D2E/DX2                !
 ! A23   A(7,8,21)             119.6915         estimate D2E/DX2                !
 ! A24   A(9,8,21)             119.9783         estimate D2E/DX2                !
 ! A25   A(8,9,10)             120.2051         estimate D2E/DX2                !
 ! A26   A(8,9,17)             119.8031         estimate D2E/DX2                !
 ! A27   A(10,9,17)            119.9917         estimate D2E/DX2                !
 ! A28   A(9,10,11)            119.7993         estimate D2E/DX2                !
 ! A29   A(9,10,18)            120.0995         estimate D2E/DX2                !
 ! A30   A(11,10,18)           120.1012         estimate D2E/DX2                !
 ! A31   A(10,11,12)           120.2052         estimate D2E/DX2                !
 ! A32   A(10,11,19)           119.9933         estimate D2E/DX2                !
 ! A33   A(12,11,19)           119.8015         estimate D2E/DX2                !
 ! A34   A(7,12,11)            120.3285         estimate D2E/DX2                !
 ! A35   A(7,12,20)            119.6929         estimate D2E/DX2                !
 ! A36   A(11,12,20)           119.9769         estimate D2E/DX2                !
 ! A37   A(8,21,23)            109.4712         estimate D2E/DX2                !
 ! A38   A(8,21,27)            109.4712         estimate D2E/DX2                !
 ! A39   A(23,21,27)           109.4713         estimate D2E/DX2                !
 ! A40   A(2,22,34)            109.4712         estimate D2E/DX2                !
 ! A41   A(2,22,41)            109.4712         estimate D2E/DX2                !
 ! A42   A(34,22,41)           109.4713         estimate D2E/DX2                !
 ! A43   A(21,23,24)           109.4712         estimate D2E/DX2                !
 ! A44   A(21,23,25)           109.4712         estimate D2E/DX2                !
 ! A45   A(21,23,26)           109.4712         estimate D2E/DX2                !
 ! A46   A(24,23,25)           109.4713         estimate D2E/DX2                !
 ! A47   A(24,23,26)           109.4712         estimate D2E/DX2                !
 ! A48   A(25,23,26)           109.4712         estimate D2E/DX2                !
 ! A49   A(21,27,28)           109.4712         estimate D2E/DX2                !
 ! A50   A(21,27,29)           109.4712         estimate D2E/DX2                !
 ! A51   A(21,27,30)           109.4712         estimate D2E/DX2                !
 ! A52   A(28,27,29)           109.4712         estimate D2E/DX2                !
 ! A53   A(28,27,30)           109.4713         estimate D2E/DX2                !
 ! A54   A(29,27,30)           109.4712         estimate D2E/DX2                !
 ! A55   A(27,30,31)           109.4712         estimate D2E/DX2                !
 ! A56   A(27,30,32)           109.4712         estimate D2E/DX2                !
 ! A57   A(27,30,33)           109.4712         estimate D2E/DX2                !
 ! A58   A(31,30,32)           109.4713         estimate D2E/DX2                !
 ! A59   A(31,30,33)           109.4712         estimate D2E/DX2                !
 ! A60   A(32,30,33)           109.4712         estimate D2E/DX2                !
 ! A61   A(22,34,35)           109.4712         estimate D2E/DX2                !
 ! A62   A(22,34,36)           109.4712         estimate D2E/DX2                !
 ! A63   A(22,34,37)           109.4712         estimate D2E/DX2                !
 ! A64   A(35,34,36)           109.4712         estimate D2E/DX2                !
 ! A65   A(35,34,37)           109.4713         estimate D2E/DX2                !
 ! A66   A(36,34,37)           109.4712         estimate D2E/DX2                !
 ! A67   A(34,37,38)           109.4712         estimate D2E/DX2                !
 ! A68   A(34,37,39)           109.4712         estimate D2E/DX2                !
 ! A69   A(34,37,40)           109.4712         estimate D2E/DX2                !
 ! A70   A(38,37,39)           109.4713         estimate D2E/DX2                !
 ! A71   A(38,37,40)           109.4712         estimate D2E/DX2                !
 ! A72   A(39,37,40)           109.4712         estimate D2E/DX2                !
 ! A73   A(22,41,42)           109.4712         estimate D2E/DX2                !
 ! A74   A(22,41,43)           109.4712         estimate D2E/DX2                !
 ! A75   A(22,41,44)           109.4712         estimate D2E/DX2                !
 ! A76   A(42,41,43)           109.4713         estimate D2E/DX2                !
 ! A77   A(42,41,44)           109.4712         estimate D2E/DX2                !
 ! A78   A(43,41,44)           109.4712         estimate D2E/DX2                !
 ! D1    D(6,1,2,3)              0.0608         estimate D2E/DX2                !
 ! D2    D(6,1,2,22)           179.6002         estimate D2E/DX2                !
 ! D3    D(7,1,2,3)           -179.943          estimate D2E/DX2                !
 ! D4    D(7,1,2,22)            -0.4035         estimate D2E/DX2                !
 ! D5    D(2,1,6,5)              0.0731         estimate D2E/DX2                !
 ! D6    D(2,1,6,16)           179.6021         estimate D2E/DX2                !
 ! D7    D(7,1,6,5)           -179.9232         estimate D2E/DX2                !
 ! D8    D(7,1,6,16)            -0.3942         estimate D2E/DX2                !
 ! D9    D(2,1,7,8)            -40.64           estimate D2E/DX2                !
 ! D10   D(2,1,7,12)           139.3635         estimate D2E/DX2                !
 ! D11   D(6,1,7,8)            139.3562         estimate D2E/DX2                !
 ! D12   D(6,1,7,12)           -40.6402         estimate D2E/DX2                !
 ! D13   D(1,2,3,4)             -0.1312         estimate D2E/DX2                !
 ! D14   D(1,2,3,13)           179.8036         estimate D2E/DX2                !
 ! D15   D(22,2,3,4)          -179.6694         estimate D2E/DX2                !
 ! D16   D(22,2,3,13)            0.2654         estimate D2E/DX2                !
 ! D17   D(1,2,22,34)          139.8452         estimate D2E/DX2                !
 ! D18   D(1,2,22,41)         -100.1548         estimate D2E/DX2                !
 ! D19   D(3,2,22,34)          -40.6137         estimate D2E/DX2                !
 ! D20   D(3,2,22,41)           79.3863         estimate D2E/DX2                !
 ! D21   D(2,3,4,5)              0.0673         estimate D2E/DX2                !
 ! D22   D(2,3,4,14)          -179.9336         estimate D2E/DX2                !
 ! D23   D(13,3,4,5)          -179.8674         estimate D2E/DX2                !
 ! D24   D(13,3,4,14)            0.1317         estimate D2E/DX2                !
 ! D25   D(3,4,5,6)              0.0667         estimate D2E/DX2                !
 ! D26   D(3,4,5,15)          -179.8669         estimate D2E/DX2                !
 ! D27   D(14,4,5,6)          -179.9324         estimate D2E/DX2                !
 ! D28   D(14,4,5,15)            0.134          estimate D2E/DX2                !
 ! D29   D(4,5,6,1)             -0.1372         estimate D2E/DX2                !
 ! D30   D(4,5,6,16)          -179.6648         estimate D2E/DX2                !
 ! D31   D(15,5,6,1)           179.7965         estimate D2E/DX2                !
 ! D32   D(15,5,6,16)            0.2689         estimate D2E/DX2                !
 ! D33   D(1,7,8,9)           -179.9323         estimate D2E/DX2                !
 ! D34   D(1,7,8,21)            -0.4134         estimate D2E/DX2                !
 ! D35   D(12,7,8,9)             0.0642         estimate D2E/DX2                !
 ! D36   D(12,7,8,21)          179.5831         estimate D2E/DX2                !
 ! D37   D(1,7,12,11)         -179.9327         estimate D2E/DX2                !
 ! D38   D(1,7,12,20)           -0.4031         estimate D2E/DX2                !
 ! D39   D(8,7,12,11)            0.0708         estimate D2E/DX2                !
 ! D40   D(8,7,12,20)          179.6004         estimate D2E/DX2                !
 ! D41   D(7,8,9,10)            -0.1349         estimate D2E/DX2                !
 ! D42   D(7,8,9,17)           179.7951         estimate D2E/DX2                !
 ! D43   D(21,8,9,10)         -179.6524         estimate D2E/DX2                !
 ! D44   D(21,8,9,17)            0.2775         estimate D2E/DX2                !
 ! D45   D(7,8,21,23)          152.152          estimate D2E/DX2                !
 ! D46   D(7,8,21,27)          -87.848          estimate D2E/DX2                !
 ! D47   D(9,8,21,23)          -28.3274         estimate D2E/DX2                !
 ! D48   D(9,8,21,27)           91.6726         estimate D2E/DX2                !
 ! D49   D(8,9,10,11)            0.0701         estimate D2E/DX2                !
 ! D50   D(8,9,10,18)         -179.9323         estimate D2E/DX2                !
 ! D51   D(17,9,10,11)        -179.8598         estimate D2E/DX2                !
 ! D52   D(17,9,10,18)           0.1379         estimate D2E/DX2                !
 ! D53   D(9,10,11,12)           0.0651         estimate D2E/DX2                !
 ! D54   D(9,10,11,19)        -179.8695         estimate D2E/DX2                !
 ! D55   D(18,10,11,12)       -179.9326         estimate D2E/DX2                !
 ! D56   D(18,10,11,19)          0.1328         estimate D2E/DX2                !
 ! D57   D(10,11,12,7)          -0.1358         estimate D2E/DX2                !
 ! D58   D(10,11,12,20)       -179.6641         estimate D2E/DX2                !
 ! D59   D(19,11,12,7)         179.7989         estimate D2E/DX2                !
 ! D60   D(19,11,12,20)          0.2707         estimate D2E/DX2                !
 ! D61   D(8,21,23,24)          73.752          estimate D2E/DX2                !
 ! D62   D(8,21,23,25)        -166.2479         estimate D2E/DX2                !
 ! D63   D(8,21,23,26)         -46.2479         estimate D2E/DX2                !
 ! D64   D(27,21,23,24)        -46.2479         estimate D2E/DX2                !
 ! D65   D(27,21,23,25)         73.7521         estimate D2E/DX2                !
 ! D66   D(27,21,23,26)       -166.2479         estimate D2E/DX2                !
 ! D67   D(8,21,27,28)         152.3288         estimate D2E/DX2                !
 ! D68   D(8,21,27,29)          32.3288         estimate D2E/DX2                !
 ! D69   D(8,21,27,30)         -87.6712         estimate D2E/DX2                !
 ! D70   D(23,21,27,28)        -87.6712         estimate D2E/DX2                !
 ! D71   D(23,21,27,29)        152.3288         estimate D2E/DX2                !
 ! D72   D(23,21,27,30)         32.3288         estimate D2E/DX2                !
 ! D73   D(2,22,34,35)        -162.8019         estimate D2E/DX2                !
 ! D74   D(2,22,34,36)         -42.8019         estimate D2E/DX2                !
 ! D75   D(2,22,34,37)          77.198          estimate D2E/DX2                !
 ! D76   D(41,22,34,35)         77.1981         estimate D2E/DX2                !
 ! D77   D(41,22,34,36)       -162.8019         estimate D2E/DX2                !
 ! D78   D(41,22,34,37)        -42.8019         estimate D2E/DX2                !
 ! D79   D(2,22,41,42)        -157.094          estimate D2E/DX2                !
 ! D80   D(2,22,41,43)         -37.094          estimate D2E/DX2                !
 ! D81   D(2,22,41,44)          82.906          estimate D2E/DX2                !
 ! D82   D(34,22,41,42)        -37.094          estimate D2E/DX2                !
 ! D83   D(34,22,41,43)         82.906          estimate D2E/DX2                !
 ! D84   D(34,22,41,44)       -157.094          estimate D2E/DX2                !
 ! D85   D(21,27,30,31)        173.2329         estimate D2E/DX2                !
 ! D86   D(21,27,30,32)        -66.7671         estimate D2E/DX2                !
 ! D87   D(21,27,30,33)         53.2329         estimate D2E/DX2                !
 ! D88   D(28,27,30,31)        -66.7671         estimate D2E/DX2                !
 ! D89   D(28,27,30,32)         53.2329         estimate D2E/DX2                !
 ! D90   D(28,27,30,33)        173.2329         estimate D2E/DX2                !
 ! D91   D(29,27,30,31)         53.2329         estimate D2E/DX2                !
 ! D92   D(29,27,30,32)        173.2329         estimate D2E/DX2                !
 ! D93   D(29,27,30,33)        -66.7671         estimate D2E/DX2                !
 ! D94   D(22,34,37,38)        128.4848         estimate D2E/DX2                !
 ! D95   D(22,34,37,39)       -111.5152         estimate D2E/DX2                !
 ! D96   D(22,34,37,40)          8.4848         estimate D2E/DX2                !
 ! D97   D(35,34,37,38)          8.4848         estimate D2E/DX2                !
 ! D98   D(35,34,37,39)        128.4848         estimate D2E/DX2                !
 ! D99   D(35,34,37,40)       -111.5152         estimate D2E/DX2                !
 ! D100  D(36,34,37,38)       -111.5152         estimate D2E/DX2                !
 ! D101  D(36,34,37,39)          8.4848         estimate D2E/DX2                !
 ! D102  D(36,34,37,40)        128.4848         estimate D2E/DX2                !
 --------------------------------------------------------------------------------
 Trust Radius=3.00D-01 FncErr=1.00D-07 GrdErr=1.00D-06 EigMax=2.50D+02 EigMin=1.00D-04
 Number of steps in this run=    235 maximum allowed number of steps=    264.
 GradGradGradGradGradGradGradGradGradGradGradGradGradGradGradGradGradGrad

                          Input orientation:                          
 ---------------------------------------------------------------------
 Center     Atomic      Atomic             Coordinates (Angstroms)
 Number     Number       Type             X           Y           Z
 ---------------------------------------------------------------------
      1          6           0       -1.549390   -0.117624   -0.005389
      2          6           0       -0.146978   -0.117624   -0.005389
      3          6           0        0.556564    1.084990   -0.005389
      4          6           0       -0.129518    2.299286   -0.008150
      5          6           0       -1.524171    2.307385   -0.009495
      6          6           0       -2.232132    1.107327   -0.006688
      7          6           0       -2.289821   -1.378068   -0.004134
      8          6           0       -1.858452   -2.456082   -0.790624
      9          6           0       -2.566600   -3.655987   -0.788875
     10          6           0       -3.709579   -3.795050   -0.001799
     11          6           0       -4.144026   -2.727891    0.784047
     12          6           0       -3.440789   -1.525058    0.783467
     13          1           0        1.656420    1.074913   -0.002117
     14          1           0        0.427451    3.247331   -0.009248
     15          1           0       -2.068466    3.263168   -0.013885
     16          1           0       -3.332438    1.118087   -0.013338
     17          1           0       -2.222458   -4.494779   -1.411603
     18          1           0       -4.266477   -4.743137   -0.000888
     19          1           0       -5.043771   -2.834776    1.407611
     20          1           0       -3.783755   -0.687364    1.409148
     21          7           0       -0.658789   -2.312411   -1.627922
     22          7           0        0.581158   -1.394579    0.004875
     23          6           0       -0.028088   -3.627662   -1.810215
     24          1           0       -0.612541   -4.212413   -2.489465
     25          1           0        0.957203   -3.498812   -2.207076
     26          1           0        0.030157   -4.129121   -0.866792
     27          6           0       -1.038526   -1.765226   -2.938376
     28          1           0       -0.213652   -1.222802   -3.351002
     29          1           0       -1.874917   -1.108153   -2.821737
     30          6           0       -1.419767   -2.918362   -3.885229
     31          1           0       -1.807882   -2.516905   -4.797973
     32          1           0       -0.552505   -3.508719   -4.095547
     33          1           0       -2.163804   -3.530665   -3.420047
     34          6           0        1.744065   -1.302740   -0.889616
     35          1           0        2.095894   -2.286773   -1.119386
     36          1           0        1.460394   -0.805287   -1.793480
     37          6           0        2.864251   -0.506216   -0.195114
     38          1           0        3.776207   -1.064475   -0.234895
     39          1           0        2.997640    0.430857   -0.694113
     40          1           0        2.597217   -0.331603    0.826210
     41          6           0        1.036137   -1.688235    1.371498
     42          1           0        1.868804   -2.359161    1.333764
     43          1           0        1.332098   -0.779133    1.851957
     44          1           0        0.238686   -2.140160    1.923526
 ---------------------------------------------------------------------
                    Distance matrix (angstroms):
                    1          2          3          4          5
     1  C    0.000000
     2  C    1.402412   0.000000
     3  C    2.425144   1.393288   0.000000
     4  C    2.803123   2.416975   1.394715   0.000000
     5  C    2.425144   2.788789   2.413239   1.394677   0.000000
     6  C    1.402371   2.418341   2.788786   2.416972   1.393325
     7  C    1.461834   2.486060   3.764115   4.264957   3.764148
     8  C    2.486061   3.002353   4.357532   5.120059   4.838649
     9  C    3.764117   4.357572   5.731044   6.481834   6.103761
    10  C    4.264961   5.120117   6.481881   7.068084   6.481958
    11  C    3.764152   4.838708   6.103836   6.482003   5.731261
    12  C    2.486072   3.667745   4.838747   5.120232   4.357733
    13  H    3.420435   2.162036   1.099907   2.165341   3.411041
    14  H    3.902671   3.413635   2.166196   1.099548   2.166178
    15  H    3.420419   3.888694   3.411058   2.165322   1.099908
    16  H    2.169402   3.416753   3.889151   3.413789   2.164318
    17  H    4.646498   5.044258   6.390166   7.246337   6.980182
    18  H    5.364509   6.194002   7.564973   8.167631   7.565063
    19  H    4.646524   5.775644   6.980321   7.246575   6.390430
    20  H    2.705163   3.943560   4.896991   4.927703   4.010834
    21  N    2.871040   2.776987   3.956265   4.916456   4.970987
    22  N    2.483939   1.470000   2.479712   3.761631   4.258773
    23  C    4.229908   3.948657   5.080187   6.195679   6.380097
    24  H    4.880124   4.811930   5.966566   6.985159   7.034847
    25  H    4.750039   4.183189   5.100900   6.295568   6.685694
    26  H    4.396486   4.106762   5.310939   6.487463   6.676788
    27  C    3.402643   3.480209   4.389812   5.092422   5.039876
    28  H    3.768121   3.524058   4.136697   4.856628   5.034416
    29  H    3.003154   3.449454   4.319003   4.751139   4.438200
    30  C    4.786867   4.951493   5.914885   6.627241   6.506969
    31  H    5.365838   5.611061   6.444618   6.996785   6.803218
    32  H    5.405802   5.328543   6.249927   7.114679   7.174052
    33  H    4.866851   5.232238   6.353310   7.054621   6.791452
    34  C    3.610152   2.400500   2.809496   4.154742   4.948634
    35  H    4.385692   3.313106   3.870312   5.217206   5.953404
    36  H    3.567765   2.500758   2.754509   3.918366   4.666792
    37  C    4.434775   3.042121   2.809511   4.107122   5.216230
    38  H    5.413981   4.042349   3.878012   5.159553   6.286037
    39  H    4.631485   3.265547   2.619367   3.706843   4.943362
    40  H    4.234583   2.875404   2.619648   3.879795   4.964725
    41  C    3.323791   2.400500   3.133143   4.377500   4.942398
    42  H    4.301380   3.298666   3.921413   5.243582   5.923958
    43  H    3.491461   2.464751   2.743382   3.882394   4.598899
    44  H    3.317918   2.821365   3.771386   4.855474   5.159931
                    6          7          8          9         10
     6  C    0.000000
     7  C    2.486066   0.000000
     8  C    3.667707   1.402412   0.000000
     9  C    4.838682   2.425147   1.393287   0.000000
    10  C    5.120173   2.803127   2.416972   1.394714   0.000000
    11  C    4.357694   2.425145   2.788784   2.413238   1.394678
    12  C    3.002440   1.402373   2.418338   2.788785   2.416972
    13  H    3.888690   4.646497   5.044204   6.390172   7.246412
    14  H    3.413650   5.364505   6.193934   7.564916   8.167631
    15  H    2.162057   4.646522   5.775574   6.980219   7.246505
    16  H    1.100379   2.705166   3.943538   4.896912   4.927604
    17  H    5.775593   3.420438   2.162036   1.099907   2.165340
    18  H    6.194072   3.902675   3.413633   2.166195   1.099548
    19  H    5.044376   3.420419   3.888689   3.411058   2.165325
    20  H    2.762796   2.169395   3.416746   3.889151   3.413793
    21  N    4.098587   2.483938   1.470000   2.479705   3.761624
    22  N    3.764872   2.871040   2.776923   3.956310   4.916577
    23  C    5.525454   3.665793   2.400500   2.736418   4.105090
    24  H    6.089900   4.125972   2.742818   2.649521   3.994285
    25  H    6.019143   4.460233   3.319870   3.801735   5.170093
    26  H    5.768719   3.700644   2.524224   2.640658   3.852978
    27  C    4.274464   3.213317   2.400500   3.245049   4.458497
    28  H    4.548428   3.941587   3.283577   4.245144   5.482256
    29  H    3.600063   2.860750   2.437746   3.332029   4.305515
    30  C    5.648821   4.265255   3.159546   3.383301   4.592696
    31  H    6.022579   4.950768   4.008129   4.236275   5.315392
    32  H    6.391228   4.929260   3.706219   3.874577   5.177632
    33  H    5.759050   4.039556   2.856892   2.664773   3.760817
    34  C    4.732666   4.130616   3.783930   4.912205   6.061523
    35  H    5.611579   4.615629   3.971600   4.870609   6.101428
    36  H    4.526087   4.194514   3.839998   5.035117   6.235176
    37  C    5.349032   5.230780   5.143980   6.306168   7.353165
    38  H    6.392882   6.078511   5.830505   6.874157   7.971661
    39  H    5.317958   5.630766   5.650254   6.904495   7.957662
    40  H    5.107528   5.066330   5.194281   6.350200   7.242703
    41  C    4.516210   3.612557   3.693645   4.638855   5.370888
    42  H    5.534531   4.477352   4.291254   5.085289   5.913025
    43  H    4.440386   4.113648   4.469341   5.518164   6.160412
    44  H    4.514071   3.269557   3.444474   4.186225   4.694074
                   11         12         13         14         15
    11  C    0.000000
    12  C    1.393323   0.000000
    13  H    6.980297   5.775684   0.000000
    14  H    7.565117   6.194140   2.495960   0.000000
    15  H    6.390417   5.044418   4.320113   2.495972   0.000000
    16  H    4.010741   2.762762   4.989057   4.320933   2.489779
    17  H    3.411040   3.888689   6.932086   8.302342   7.884356
    18  H    2.166180   3.413650   8.302434   9.267179   8.302550
    19  H    1.099908   2.162052   7.884514   8.302637   6.932389
    20  H    2.164324   1.100379   5.890059   5.935312   4.535851
    21  N    4.258767   3.764870   4.413321   5.891583   5.973222
    22  N    4.971136   4.098693   2.693441   4.644475   5.358681
    23  C    4.947801   4.774375   5.312343   7.121553   7.407664
    24  H    5.038955   5.092440   6.268245   7.929743   8.008278
    25  H    5.963529   5.672864   5.125398   7.114881   7.725874
    26  H    4.702395   4.642409   5.520359   7.436751   7.731598
    27  C    4.942397   4.436289   4.893948   5.987871   5.907466
    28  H    5.900149   5.253532   4.471207   5.617866   5.890722
    29  H    4.557860   3.952627   5.018603   5.672850   5.199032
    30  C    5.409252   5.274708   6.362997   7.513402   7.322528
    31  H    6.054835   5.899374   6.921183   7.820167   7.507639
    32  H    6.108941   6.006819   6.530329   7.956278   8.050873
    33  H    4.715945   4.829356   6.891132   8.018065   7.600473
    34  C    6.285047   5.452645   2.539403   4.817848   6.012471
    35  H    6.538673   5.903890   3.569644   5.885781   7.026085
    36  H    6.461391   5.583934   2.604334   4.546885   5.672048
    37  C    7.416909   6.461361   1.999018   4.479024   6.210700
    38  H    8.156917   7.303029   3.020706   5.464134   7.275819
    39  H    7.947707   6.889283   1.640895   3.873943   5.843811
    40  H    7.154602   6.154972   1.884014   4.267861   5.949515
    41  C    5.316021   4.518327   3.147468   5.161082   6.006183
    42  H    6.049155   5.402808   3.690874   5.942553   6.994915
    43  H    5.909825   4.947578   2.642019   4.527127   5.602267
    44  H    4.566400   3.900849   4.006840   5.726806   6.186474
                   16         17         18         19         20
    16  H    0.000000
    17  H    5.889946   0.000000
    18  H    5.935194   2.495959   0.000000
    19  H    4.535734   4.320114   2.495976   0.000000
    20  H    2.342393   4.989057   4.320939   2.489783   0.000000
    21  N    4.639353   2.693433   4.644468   5.358674   4.650805
    22  N    4.650812   4.413379   5.891726   5.973413   4.639461
    23  C    6.055545   2.392916   4.741508   6.011668   5.754536
    24  H    6.476362   1.957894   4.452632   6.059776   6.138546
    25  H    6.673025   3.425635   5.805381   7.036946   6.592269
    26  H    6.290359   2.346231   4.425819   5.709027   5.618854
    27  C    4.704399   3.344128   5.283603   6.006124   5.253478
    28  H    5.132892   4.301442   6.327828   6.969427   5.974224
    29  H    3.868800   3.684902   5.185544   5.559699   4.660592
    30  C    5.911241   3.041091   5.149920   6.415181   6.212585
    31  H    6.199207   3.943521   5.832051   7.005804   6.766065
    32  H    6.767554   3.311286   5.664240   7.135154   6.978731
    33  H    5.880668   2.228633   4.193086   5.664341   5.833500
    34  C    5.692025   5.118094   6.982319   7.327967   6.018288
    35  H    6.502554   4.858894   6.911189   7.593473   6.597110
    36  H    5.462555   5.227005   7.177541   7.527946   6.145879
    37  C    6.408616   6.577468   8.296777   8.398079   6.841232
    38  H    7.439456   7.009680   8.847151   9.144606   7.745846
    39  H    6.403564   7.212913   8.945288   8.930056   7.187590
    40  H    6.161757   6.750490   8.200977   8.061551   6.417412
    41  C    5.373794   5.122576   6.271650   6.187176   4.922857
    42  H    6.399911   5.369947   6.716123   6.929312   5.895084
    43  H    5.369978   6.090297   7.105660   6.713778   5.135801
    44  H    5.207739   4.767027   5.547554   5.352851   4.307579
                   21         22         23         24         25
    21  N    0.000000
    22  N    2.246310   0.000000
    23  C    1.470000   2.941495   0.000000
    24  H    2.086720   3.948016   1.070000   0.000000
    25  H    2.086720   3.076026   1.070000   1.747303   0.000000
    26  H    2.086720   2.922520   1.070000   1.747303   1.747303
    27  C    1.470000   3.379863   2.400500   2.524224   2.742819
    28  H    2.086720   3.452989   2.862134   3.136739   2.803514
    29  H    2.086720   3.755540   3.283578   3.367555   3.756856
    30  C    2.457987   4.632334   2.597223   2.067448   2.967004
    31  H    3.378084   5.480371   3.650773   3.103674   3.914407
    32  H    2.744380   4.750604   2.347745   1.754505   2.417776
    33  H    2.638356   4.881369   2.676239   1.933178   3.348582
    34  C    2.708919   1.470000   3.064847   4.071769   2.679102
    35  H    2.801347   2.086720   2.605096   3.594555   1.987140
    36  H    2.605719   2.086720   3.190871   4.048452   2.771162
    37  C    4.210356   2.457987   4.551659   5.575663   4.079271
    38  H    4.813218   3.220994   4.850177   5.852667   4.214531
    39  H    4.665512   3.108084   5.183849   6.149525   4.679182
    40  H    4.532984   2.422603   4.970610   6.029671   4.682060
    41  C    3.501270   1.470000   3.875209   4.898637   4.011311
    42  H    3.893905   2.086720   3.884828   4.920233   3.829800
    43  H    4.292334   2.086720   4.834845   5.866598   4.900301
    44  H    3.667140   2.086720   4.027983   4.949071   4.407275
                   26         27         28         29         30
    26  H    0.000000
    27  C    3.319871   0.000000
    28  H    3.831114   1.070000   0.000000
    29  H    4.071532   1.070000   1.747303   0.000000
    30  C    3.560784   1.540000   2.148263   2.148263   0.000000
    31  H    4.629450   2.148263   2.511971   2.427876   1.070000
    32  H    3.339050   2.148263   2.427877   3.022265   1.070000
    33  H    3.419171   2.148263   3.022266   2.511970   1.070000
    34  C    3.305515   3.486276   3.146024   4.107065   4.646909
    35  H    2.779446   3.661328   3.383215   4.478224   4.517595
    36  H    3.735265   2.911506   2.324354   3.503332   4.139544
    37  C    4.648514   4.933787   4.466163   5.451714   6.147211
    38  H    4.881008   5.566104   5.064994   6.215212   6.615133
    39  H    5.443269   5.113719   4.483976   5.535083   6.396403
    40  H    4.886430   5.426417   5.113151   5.823275   6.710078
    41  C    3.461194   4.783844   4.907199   5.137505   5.931093
    42  H    3.369840   5.201586   5.251187   5.731375   6.193972
    43  H    4.506558   5.435027   5.445821   5.677730   6.713000
    44  H    3.432976   5.040826   5.372783   5.296214   6.090788
                   31         32         33         34         35
    31  H    0.000000
    32  H    1.747303   0.000000
    33  H    1.747303   1.747303   0.000000
    34  C    5.419020   4.518691   5.161218   0.000000
    35  H    5.368838   4.167097   4.998533   1.070000   0.000000
    36  H    4.757966   4.081644   4.817490   1.070000   1.747303
    37  C    6.859883   5.991880   6.695433   1.540000   2.148263
    38  H    7.356173   6.294180   7.177117   2.148263   2.258271
    39  H    6.973092   6.300281   7.054422   2.148263   2.894740
    40  H    7.470734   6.651203   7.136667   2.148263   2.803455
    41  C    6.843793   5.977167   6.049221   2.400500   2.772334
    42  H    7.151300   6.054885   6.342954   2.464752   2.464701
    43  H    7.556513   6.809932   6.898281   2.821365   3.418369
    44  H    7.036257   6.223196   6.021564   3.298667   3.567917
                   36         37         38         39         40
    36  H    0.000000
    37  C    2.148263   0.000000
    38  H    2.803455   1.070000   0.000000
    39  H    2.258271   1.070000   1.747303   0.000000
    40  H    2.894740   1.070000   1.747303   1.747303   0.000000
    41  C    3.313107   2.682059   3.236906   3.550323   2.138868
    42  H    3.515818   2.600344   2.788385   3.629154   2.213411
    43  H    3.647788   2.571474   3.226460   3.274230   1.689073
    44  H    4.134077   3.748600   4.281348   4.590642   3.168225
                   41         42         43         44
    41  C    0.000000
    42  H    1.070000   0.000000
    43  H    1.070000   1.747303   0.000000
    44  H    1.070000   1.747303   1.747303   0.000000
 Stoichiometry    C18H24N2
 Framework group  C1[X(C18H24N2)]
 Deg. of freedom   126
 Full point group                 C1      NOp   1
 Largest Abelian subgroup         C1      NOp   1
 Largest concise Abelian subgroup C1      NOp   1
                         Standard orientation:                         
 ---------------------------------------------------------------------
 Center     Atomic      Atomic             Coordinates (Angstroms)
 Number     Number       Type             X           Y           Z
 ---------------------------------------------------------------------
      1          6           0       -0.501503    1.355882    0.193254
      2          6           0       -1.436980    0.362412   -0.130258
      3          6           0       -2.771464    0.503837    0.244445
      4          6           0       -3.186872    1.634608    0.947313
      5          6           0       -2.262138    2.626268    1.273813
      6          6           0       -0.927088    2.490635    0.898844
      7          6           0        0.898949    1.210405   -0.199847
      8          6           0        1.539011   -0.033487   -0.100777
      9          6           0        2.874280   -0.169397   -0.474720
     10          6           0        3.584376    0.931362   -0.953597
     11          6           0        2.954301    2.171360   -1.056247
     12          6           0        1.619975    2.312849   -0.680874
     13          1           0       -3.498504   -0.279146   -0.016600
     14          1           0       -4.240230    1.743921    1.243105
     15          1           0       -2.585829    3.518307    1.829949
     16          1           0       -0.199585    3.272733    1.163219
     17          1           0        3.368722   -1.148271   -0.390286
     18          1           0        4.637752    0.821890   -1.249263
     19          1           0        3.510653    3.041092   -1.435504
     20          1           0        1.124967    3.291675   -0.768623
     21          7           0        0.797512   -1.195242    0.410499
     22          7           0       -1.005998   -0.828007   -0.877291
     23          6           0        1.358315   -2.426322   -0.164689
     24          1           0        2.300354   -2.638438    0.296256
     25          1           0        0.685210   -3.239822    0.008653
     26          1           0        1.497585   -2.296799   -1.217651
     27          6           0        0.910849   -1.242926    1.875347
     28          1           0        0.050267   -1.730068    2.283994
     29          1           0        0.973468   -0.246750    2.260851
     30          6           0        2.178050   -2.025508    2.266966
     31          1           0        2.324824   -1.960325    3.324845
     32          1           0        2.064977   -3.051508    1.985119
     33          1           0        3.024808   -1.608432    1.763032
     34          6           0       -1.674618   -2.017827   -0.331236
     35          1           0       -1.156887   -2.897159   -0.653151
     36          1           0       -1.668294   -1.971441    0.737739
     37          6           0       -3.129323   -2.065483   -0.834388
     38          1           0       -3.328316   -3.026971   -1.259645
     39          1           0       -3.795850   -1.892875   -0.015335
     40          1           0       -3.274539   -1.309716   -1.577778
     41          6           0       -1.362795   -0.672691   -2.294850
     42          1           0       -1.428239   -1.637001   -2.753894
     43          1           0       -2.307256   -0.175846   -2.372554
     44          1           0       -0.612599   -0.092171   -2.789929
 ---------------------------------------------------------------------
 Rotational constants (GHZ):           0.4638707           0.3326868           0.2597815
 Standard basis: 6-31G(d) (6D, 7F)
 There are   348 symmetry adapted cartesian basis functions of A   symmetry.
 There are   348 symmetry adapted basis functions of A   symmetry.
   348 basis functions,   656 primitive gaussians,   348 cartesian basis functions
    73 alpha electrons       73 beta electrons
       nuclear repulsion energy      1658.5157771246 Hartrees.
 NAtoms=   44 NActive=   44 NUniq=   44 SFac= 1.00D+00 NAtFMM=   60 NAOKFM=F Big=F
 Integral buffers will be    131072 words long.
 Raffenetti 2 integral format.
 Two-electron integral symmetry is turned on.
 ------------------------------------------------------------------------------
 Polarizable Continuum Model (PCM)
 =================================
 Model                : PCM.
 Atomic radii         : SMD-Coulomb.
 Polarization charges : Total charges.
 Charge compensation  : None.
 Solution method      : On-the-fly selection.
 Cavity type          : VdW (van der Waals Surface) (Alpha=1.000).
 Cavity algorithm     : GePol (No added spheres)
                        Default sphere list used, NSphG=   44.
                        Lebedev-Laikov grids with approx.  5.0 points / Ang**2.
                        Smoothing algorithm: York/Karplus (Gamma=1.0000).
                        Polarization charges: spherical gaussians, with
                                              point-specific exponents (IZeta= 3).
                        Self-potential: point-specific (ISelfS= 7).
                        Self-field    : sphere-specific E.n sum rule (ISelfD= 2).
 1st derivatives      : Analytical E(r).r(x)/FMM algorithm (CHGder, D1EAlg=3).
                        Cavity 1st derivative terms included.
 Solvent              : Toluene, Eps=   2.374100 Eps(inf)=   2.238315
 ------------------------------------------------------------------------------
 ------------------------------------------------------------------------------
 Atomic radii for non-electrostatic terms: SMD-CDS.
 ------------------------------------------------------------------------------
 Nuclear repulsion after PCM non-electrostatic terms =     1658.5046102026 Hartrees.
 One-electron integrals computed using PRISM.
 NBasis=   348 RedAO= T EigKep=  3.25D-04  NBF=   348
 NBsUse=   348 1.00D-06 EigRej= -1.00D+00 NBFU=   348
 ExpMin= 1.61D-01 ExpMax= 4.17D+03 ExpMxC= 6.27D+02 IAcc=3 IRadAn=         5 AccDes= 0.00D+00
 Harris functional with IExCor=  402 and IRadAn=       5 diagonalized for initial guess.
 HarFok:  IExCor=  402 AccDes= 0.00D+00 IRadAn=         5 IDoV= 1 UseB2=F ITyADJ=14
 ICtDFT=  3500011 ScaDFX=  1.000000  1.000000  1.000000  1.000000
 FoFCou: FMM=F IPFlag=           0 FMFlag=      100000 FMFlg1=           0
         NFxFlg=           0 DoJE=T BraDBF=F KetDBF=T FulRan=T
         wScrn=  0.000000 ICntrl=       500 IOpCl=  0 I1Cent=   200000004 NGrid=           0
         NMat0=    1 NMatS0=      1 NMatT0=    0 NMatD0=    1 NMtDS0=    0 NMtDT0=    0
 Petite list used in FoFCou.
 Requested convergence on RMS density matrix=1.00D-08 within 128 cycles.
 Requested convergence on MAX density matrix=1.00D-06.
 Requested convergence on             energy=1.00D-06.
 No special actions if energy rises.
 Inv3:  Mode=1 IEnd=    23469627.
 Iteration    1 A*A^-1 deviation from unit magnitude is 3.77D-15 for   2787.
 Iteration    1 A*A^-1 deviation from orthogonality  is 2.09D-15 for   2580    887.
 Iteration    1 A^-1*A deviation from unit magnitude is 3.77D-15 for   2787.
 Iteration    1 A^-1*A deviation from orthogonality  is 2.02D-15 for   2724   1544.
 Error on total polarization charges =  0.03715
 SCF Done:  E(RB3LYP) =  -809.757793191     A.U. after   13 cycles
            NFock= 13  Conv=0.51D-08     -V/T= 2.0084
 SMD-CDS (non-electrostatic) energy       (kcal/mol) =      -7.01
 (included in total energy above)

 **********************************************************************

            Population analysis using the SCF Density.

 **********************************************************************

 Orbital symmetries:
       Occupied  (A) (A) (A) (A) (A) (A) (A) (A) (A) (A) (A) (A)
                 (A) (A) (A) (A) (A) (A) (A) (A) (A) (A) (A) (A)
                 (A) (A) (A) (A) (A) (A) (A) (A) (A) (A) (A) (A)
                 (A) (A) (A) (A) (A) (A) (A) (A) (A) (A) (A) (A)
                 (A) (A) (A) (A) (A) (A) (A) (A) (A) (A) (A) (A)
                 (A) (A) (A) (A) (A) (A) (A) (A) (A) (A) (A) (A)
                 (A)
       Virtual   (A) (A) (A) (A) (A) (A) (A) (A) (A) (A) (A) (A)
                 (A) (A) (A) (A) (A) (A) (A) (A) (A) (A) (A) (A)
                 (A) (A) (A) (A) (A) (A) (A) (A) (A) (A) (A) (A)
                 (A) (A) (A) (A) (A) (A) (A) (A) (A) (A) (A) (A)
                 (A) (A) (A) (A) (A) (A) (A) (A) (A) (A) (A) (A)
                 (A) (A) (A) (A) (A) (A) (A) (A) (A) (A) (A) (A)
                 (A) (A) (A) (A) (A) (A) (A) (A) (A) (A) (A) (A)
                 (A) (A) (A) (A) (A) (A) (A) (A) (A) (A) (A) (A)
                 (A) (A) (A) (A) (A) (A) (A) (A) (A) (A) (A) (A)
                 (A) (A) (A) (A) (A) (A) (A) (A) (A) (A) (A) (A)
                 (A) (A) (A) (A) (A) (A) (A) (A) (A) (A) (A) (A)
                 (A) (A) (A) (A) (A) (A) (A) (A) (A) (A) (A) (A)
                 (A) (A) (A) (A) (A) (A) (A) (A) (A) (A) (A) (A)
                 (A) (A) (A) (A) (A) (A) (A) (A) (A) (A) (A) (A)
                 (A) (A) (A) (A) (A) (A) (A) (A) (A) (A) (A) (A)
                 (A) (A) (A) (A) (A) (A) (A) (A) (A) (A) (A) (A)
                 (A) (A) (A) (A) (A) (A) (A) (A) (A) (A) (A) (A)
                 (A) (A) (A) (A) (A) (A) (A) (A) (A) (A) (A) (A)
                 (A) (A) (A) (A) (A) (A) (A) (A) (A) (A) (A) (A)
                 (A) (A) (A) (A) (A) (A) (A) (A) (A) (A) (A) (A)
                 (A) (A) (A) (A) (A) (A) (A) (A) (A) (A) (A) (A)
                 (A) (A) (A) (A) (A) (A) (A) (A) (A) (A) (A) (A)
                 (A) (A) (A) (A) (A) (A) (A) (A) (A) (A) (A)
 The electronic state is 1-A.
 Alpha  occ. eigenvalues --  -14.30394 -14.29931 -10.20476 -10.20310 -10.18774
 Alpha  occ. eigenvalues --  -10.18520 -10.18447 -10.18366 -10.18138 -10.18130
 Alpha  occ. eigenvalues --  -10.18128 -10.18067 -10.17972 -10.17879 -10.17705
 Alpha  occ. eigenvalues --  -10.17666 -10.17520 -10.17177 -10.15326 -10.15123
 Alpha  occ. eigenvalues --   -0.92615  -0.90424  -0.84802  -0.82835  -0.76941
 Alpha  occ. eigenvalues --   -0.74317  -0.73692  -0.72740  -0.71710  -0.70698
 Alpha  occ. eigenvalues --   -0.67795  -0.66820  -0.61855  -0.60863  -0.59236
 Alpha  occ. eigenvalues --   -0.57372  -0.56942  -0.54458  -0.51180  -0.49241
 Alpha  occ. eigenvalues --   -0.48232  -0.46662  -0.46447  -0.45535  -0.45478
 Alpha  occ. eigenvalues --   -0.44933  -0.42967  -0.42822  -0.42431  -0.41655
 Alpha  occ. eigenvalues --   -0.40857  -0.39898  -0.38552  -0.37495  -0.37282
 Alpha  occ. eigenvalues --   -0.37042  -0.36361  -0.35883  -0.35565  -0.35271
 Alpha  occ. eigenvalues --   -0.34884  -0.34512  -0.34196  -0.33655  -0.32838
 Alpha  occ. eigenvalues --   -0.32140  -0.30728  -0.26343  -0.25230  -0.23753
 Alpha  occ. eigenvalues --   -0.22960  -0.20490  -0.14814
 Alpha virt. eigenvalues --   -0.01676   0.00695   0.01273   0.03823   0.09925
 Alpha virt. eigenvalues --    0.10404   0.10966   0.12169   0.12689   0.13371
 Alpha virt. eigenvalues --    0.13544   0.14631   0.15380   0.15952   0.16616
 Alpha virt. eigenvalues --    0.17136   0.17578   0.17796   0.18350   0.18694
 Alpha virt. eigenvalues --    0.18969   0.19449   0.19568   0.20015   0.20421
 Alpha virt. eigenvalues --    0.21266   0.21645   0.22799   0.23412   0.24542
 Alpha virt. eigenvalues --    0.25289   0.26005   0.26873   0.27570   0.27694
 Alpha virt. eigenvalues --    0.28356   0.28760   0.30310   0.31450   0.31527
 Alpha virt. eigenvalues --    0.34201   0.34361   0.36010   0.36944   0.37466
 Alpha virt. eigenvalues --    0.40419   0.42440   0.48808   0.50112   0.50802
 Alpha virt. eigenvalues --    0.51826   0.52849   0.53083   0.54723   0.54916
 Alpha virt. eigenvalues --    0.55513   0.55802   0.56523   0.56977   0.57671
 Alpha virt. eigenvalues --    0.58304   0.58966   0.59533   0.60202   0.60574
 Alpha virt. eigenvalues --    0.61359   0.61509   0.61715   0.61971   0.62686
 Alpha virt. eigenvalues --    0.62755   0.63325   0.63882   0.64729   0.65407
 Alpha virt. eigenvalues --    0.65608   0.66306   0.67068   0.67966   0.69286
 Alpha virt. eigenvalues --    0.71132   0.72443   0.73522   0.75333   0.77064
 Alpha virt. eigenvalues --    0.78737   0.80818   0.81576   0.81906   0.82106
 Alpha virt. eigenvalues --    0.83199   0.83899   0.84632   0.85076   0.85442
 Alpha virt. eigenvalues --    0.85946   0.86820   0.87728   0.88287   0.89088
 Alpha virt. eigenvalues --    0.90160   0.90505   0.90642   0.91310   0.91524
 Alpha virt. eigenvalues --    0.92023   0.93198   0.93963   0.94451   0.95322
 Alpha virt. eigenvalues --    0.95868   0.97281   0.98073   0.98812   0.99025
 Alpha virt. eigenvalues --    1.00200   1.01046   1.01740   1.02793   1.03192
 Alpha virt. eigenvalues --    1.03655   1.05271   1.05955   1.06872   1.08390
 Alpha virt. eigenvalues --    1.08960   1.10238   1.11464   1.12290   1.14061
 Alpha virt. eigenvalues --    1.14519   1.15600   1.17807   1.18939   1.19351
 Alpha virt. eigenvalues --    1.21816   1.23236   1.25980   1.26657   1.27651
 Alpha virt. eigenvalues --    1.30304   1.32823   1.33346   1.34303   1.37408
 Alpha virt. eigenvalues --    1.38709   1.40164   1.43066   1.43885   1.45783
 Alpha virt. eigenvalues --    1.46094   1.47466   1.48669   1.49562   1.50090
 Alpha virt. eigenvalues --    1.52287   1.53676   1.54155   1.55528   1.57754
 Alpha virt. eigenvalues --    1.62795   1.65361   1.66584   1.69099   1.70369
 Alpha virt. eigenvalues --    1.73132   1.77372   1.78823   1.80694   1.82176
 Alpha virt. eigenvalues --    1.82971   1.85096   1.86055   1.86705   1.87738
 Alpha virt. eigenvalues --    1.88972   1.90188   1.92406   1.92530   1.93381
 Alpha virt. eigenvalues --    1.94273   1.96641   1.97205   1.97579   1.99859
 Alpha virt. eigenvalues --    2.01076   2.02637   2.03493   2.04323   2.04976
 Alpha virt. eigenvalues --    2.06496   2.08288   2.09101   2.10291   2.11197
 Alpha virt. eigenvalues --    2.13313   2.14281   2.14561   2.16098   2.16600
 Alpha virt. eigenvalues --    2.18452   2.19106   2.21322   2.23654   2.24398
 Alpha virt. eigenvalues --    2.24893   2.26323   2.27653   2.27976   2.30193
 Alpha virt. eigenvalues --    2.31391   2.32217   2.32922   2.33211   2.33701
 Alpha virt. eigenvalues --    2.34241   2.36484   2.38469   2.38663   2.40383
 Alpha virt. eigenvalues --    2.42058   2.43483   2.46644   2.48099   2.51463
 Alpha virt. eigenvalues --    2.54057   2.55709   2.56366   2.58093   2.60356
 Alpha virt. eigenvalues --    2.61504   2.63896   2.65155   2.66754   2.67483
 Alpha virt. eigenvalues --    2.67940   2.70490   2.72670   2.73337   2.74030
 Alpha virt. eigenvalues --    2.76648   2.76960   2.79954   2.84231   2.86139
 Alpha virt. eigenvalues --    2.86657   2.87772   2.88248   2.90540   3.05306
 Alpha virt. eigenvalues --    3.08633   3.09131   3.28701   3.39544   3.49521
 Alpha virt. eigenvalues --    4.10447   4.10624   4.14572   4.15089   4.19846
 Alpha virt. eigenvalues --    4.21421   4.23231   4.24112   4.28463   4.32909
 Alpha virt. eigenvalues --    4.35500   4.39066   4.41406   4.44280   4.46772
 Alpha virt. eigenvalues --    4.50926   4.54972   4.66061   4.70731   4.84942
          Condensed to atoms (all electrons):
               1          2          3          4          5          6
     1  C    4.959716   0.516582  -0.059365  -0.034720  -0.017656   0.501032
     2  C    0.516582   4.793023   0.459748  -0.013841  -0.043228  -0.036225
     3  C   -0.059365   0.459748   5.150037   0.488403  -0.025603  -0.057607
     4  C   -0.034720  -0.013841   0.488403   4.936513   0.536917  -0.030542
     5  C   -0.017656  -0.043228  -0.025603   0.536917   4.908910   0.502448
     6  C    0.501032  -0.036225  -0.057607  -0.030542   0.502448   5.072539
     7  C    0.276328  -0.027654   0.011734  -0.000130   0.007094  -0.068659
     8  C   -0.028521  -0.020552   0.000253   0.000041  -0.000183   0.004958
     9  C    0.011940   0.000221   0.000001   0.000000   0.000003  -0.000246
    10  C   -0.000202   0.000047   0.000000  -0.000000  -0.000000   0.000011
    11  C    0.007247  -0.000182   0.000002  -0.000000  -0.000001   0.000402
    12  C   -0.070817   0.005210  -0.000240   0.000012   0.000423  -0.011695
    13  H    0.003796  -0.043277   0.348214  -0.039388   0.004693   0.000584
    14  H    0.000849   0.002888  -0.035945   0.354755  -0.041216   0.004267
    15  H    0.002867   0.001124   0.004232  -0.040338   0.355691  -0.037484
    16  H   -0.038739   0.004787   0.000307   0.004430  -0.041216   0.350024
    17  H   -0.000083  -0.000027  -0.000000   0.000000  -0.000000   0.000002
    18  H    0.000008   0.000000   0.000000  -0.000000   0.000000  -0.000000
    19  H   -0.000204   0.000001  -0.000000   0.000000  -0.000000  -0.000001
    20  H   -0.007801   0.000113  -0.000019  -0.000002  -0.000115   0.005210
    21  N    0.006877  -0.013490  -0.002867   0.000099  -0.000006   0.000055
    22  N   -0.087873   0.315929  -0.090152   0.006258  -0.000110   0.006465
    23  C   -0.000007   0.000064   0.000036  -0.000000  -0.000000   0.000004
    24  H    0.000040  -0.000024  -0.000001   0.000000   0.000000  -0.000000
    25  H   -0.000066   0.000008   0.000004  -0.000000   0.000000  -0.000000
    26  H   -0.000081   0.000080   0.000007  -0.000000   0.000000   0.000000
    27  C   -0.000094   0.001669   0.000173  -0.000009  -0.000045  -0.000082
    28  H   -0.000974   0.000053   0.000215  -0.000023   0.000007  -0.000018
    29  H    0.003873  -0.000641  -0.000183   0.000006   0.000014   0.000944
    30  C    0.000344   0.000033  -0.000004   0.000000  -0.000000  -0.000001
    31  H   -0.000006   0.000003   0.000000  -0.000000   0.000000   0.000000
    32  H    0.000000  -0.000004  -0.000000   0.000000  -0.000000  -0.000000
    33  H   -0.000021   0.000000   0.000000  -0.000000  -0.000000  -0.000000
    34  C    0.002763  -0.049502  -0.001790   0.000153  -0.000018  -0.000149
    35  H    0.000085   0.005896  -0.000160   0.000009  -0.000000   0.000002
    36  H    0.000643  -0.001218   0.001885  -0.000195  -0.000016  -0.000067
    37  C   -0.000432  -0.015601  -0.015512   0.000910   0.000001   0.000009
    38  H    0.000019   0.000504   0.001301  -0.000034   0.000000   0.000000
    39  H    0.000018   0.001842  -0.016802   0.000870  -0.000012  -0.000008
    40  H   -0.000301  -0.004123  -0.004128   0.000170   0.000002  -0.000006
    41  C    0.004410  -0.046404  -0.014460   0.000075   0.000017  -0.000080
    42  H   -0.000109   0.005306   0.000196   0.000007  -0.000001   0.000006
    43  H   -0.002103  -0.009946   0.014184  -0.001055   0.000001  -0.000107
    44  H    0.002056  -0.000618  -0.000437   0.000040  -0.000002  -0.000071
               7          8          9         10         11         12
     1  C    0.276328  -0.028521   0.011940  -0.000202   0.007247  -0.070817
     2  C   -0.027654  -0.020552   0.000221   0.000047  -0.000182   0.005210
     3  C    0.011734   0.000253   0.000001   0.000000   0.000002  -0.000240
     4  C   -0.000130   0.000041   0.000000  -0.000000  -0.000000   0.000012
     5  C    0.007094  -0.000183   0.000003  -0.000000  -0.000001   0.000423
     6  C   -0.068659   0.004958  -0.000246   0.000011   0.000402  -0.011695
     7  C    4.923695   0.521747  -0.049240  -0.033658  -0.019365   0.503260
     8  C    0.521747   4.738780   0.464236  -0.013640  -0.041520  -0.034434
     9  C   -0.049240   0.464236   5.123034   0.491863  -0.027083  -0.060376
    10  C   -0.033658  -0.013640   0.491863   4.923011   0.540529  -0.029436
    11  C   -0.019365  -0.041520  -0.027083   0.540529   4.909147   0.502284
    12  C    0.503260  -0.034434  -0.060376  -0.029436   0.502284   5.071721
    13  H   -0.000111  -0.000021  -0.000000   0.000000  -0.000000   0.000001
    14  H    0.000009   0.000000   0.000000  -0.000000   0.000000  -0.000000
    15  H   -0.000203   0.000001  -0.000000   0.000000  -0.000000  -0.000002
    16  H   -0.007988   0.000091  -0.000017  -0.000003  -0.000102   0.005263
    17  H    0.003301  -0.043763   0.357676  -0.041926   0.004310   0.000584
    18  H    0.000852   0.002782  -0.036047   0.354142  -0.040455   0.004270
    19  H    0.002913   0.001072   0.004311  -0.040606   0.356447  -0.037571
    20  H   -0.037898   0.004811   0.000427   0.004332  -0.041338   0.349390
    21  N   -0.075295   0.299589  -0.087053   0.006258  -0.000097   0.006822
    22  N    0.011370  -0.014316  -0.003127   0.000122  -0.000031   0.000012
    23  C    0.005862  -0.051937  -0.009855   0.000248   0.000011  -0.000165
    24  H   -0.000937  -0.011108   0.002139  -0.000067  -0.000001   0.000004
    25  H    0.000098   0.005268   0.000512  -0.000000  -0.000000   0.000005
    26  H    0.000574  -0.003097   0.002522   0.000072  -0.000015  -0.000066
    27  C   -0.009653  -0.035138  -0.001493   0.000006   0.000045  -0.000227
    28  H    0.001160   0.004474  -0.000457   0.000013  -0.000001   0.000014
    29  H    0.001090  -0.001021   0.000634  -0.000143  -0.000010  -0.000447
    30  C   -0.000459  -0.007628  -0.002164  -0.000078  -0.000005   0.000010
    31  H   -0.000002   0.000049  -0.000094   0.000008   0.000000  -0.000001
    32  H   -0.000021   0.000179   0.000121  -0.000009   0.000000   0.000000
    33  H    0.000267   0.004717   0.006558   0.000315  -0.000020  -0.000012
    34  C    0.000379  -0.000001   0.000047  -0.000001   0.000000   0.000005
    35  H   -0.000089   0.000111   0.000017  -0.000000   0.000000  -0.000000
    36  H    0.000011   0.000096  -0.000001  -0.000000  -0.000000   0.000001
    37  C   -0.000037  -0.000001   0.000000  -0.000000   0.000000  -0.000000
    38  H   -0.000001   0.000001   0.000000  -0.000000   0.000000   0.000000
    39  H   -0.000001   0.000001   0.000000  -0.000000   0.000000   0.000000
    40  H    0.000021  -0.000005  -0.000000   0.000000  -0.000000  -0.000000
    41  C   -0.003238   0.000583   0.000148  -0.000006   0.000002  -0.000035
    42  H   -0.000011  -0.000072  -0.000009   0.000000   0.000000  -0.000001
    43  H    0.000805  -0.000107  -0.000008   0.000001  -0.000001  -0.000013
    44  H    0.001305   0.000935   0.000101  -0.000043  -0.000008   0.000413
              13         14         15         16         17         18
     1  C    0.003796   0.000849   0.002867  -0.038739  -0.000083   0.000008
     2  C   -0.043277   0.002888   0.001124   0.004787  -0.000027   0.000000
     3  C    0.348214  -0.035945   0.004232   0.000307  -0.000000   0.000000
     4  C   -0.039388   0.354755  -0.040338   0.004430   0.000000  -0.000000
     5  C    0.004693  -0.041216   0.355691  -0.041216  -0.000000   0.000000
     6  C    0.000584   0.004267  -0.037484   0.350024   0.000002  -0.000000
     7  C   -0.000111   0.000009  -0.000203  -0.007988   0.003301   0.000852
     8  C   -0.000021   0.000000   0.000001   0.000091  -0.043763   0.002782
     9  C   -0.000000   0.000000  -0.000000  -0.000017   0.357676  -0.036047
    10  C    0.000000  -0.000000   0.000000  -0.000003  -0.041926   0.354142
    11  C   -0.000000   0.000000  -0.000000  -0.000102   0.004310  -0.040455
    12  C    0.000001  -0.000000  -0.000002   0.005263   0.000584   0.004270
    13  H    0.594608  -0.005254  -0.000179   0.000014  -0.000000  -0.000000
    14  H   -0.005254   0.589523  -0.004887  -0.000179  -0.000000  -0.000000
    15  H   -0.000179  -0.004887   0.589938  -0.004905   0.000000  -0.000000
    16  H    0.000014  -0.000179  -0.004905   0.582706   0.000000  -0.000000
    17  H   -0.000000  -0.000000   0.000000   0.000000   0.582597  -0.004533
    18  H   -0.000000  -0.000000  -0.000000  -0.000000  -0.004533   0.588150
    19  H    0.000000  -0.000000   0.000000   0.000005  -0.000173  -0.004981
    20  H    0.000000  -0.000000   0.000005   0.003087   0.000016  -0.000178
    21  N   -0.000058  -0.000000  -0.000000   0.000003  -0.012785  -0.000121
    22  N   -0.009761  -0.000121   0.000005  -0.000094  -0.000110  -0.000000
    23  C   -0.000000   0.000000  -0.000000   0.000000   0.007359   0.000002
    24  H    0.000000   0.000000  -0.000000  -0.000000   0.004328   0.000026
    25  H   -0.000001  -0.000000   0.000000   0.000000  -0.000066  -0.000000
    26  H    0.000000   0.000000   0.000000  -0.000000  -0.000595  -0.000005
    27  C   -0.000006  -0.000000  -0.000000  -0.000010   0.000197  -0.000003
    28  H    0.000013   0.000000   0.000000  -0.000000  -0.000076  -0.000000
    29  H   -0.000001  -0.000000  -0.000001   0.000060   0.000119   0.000001
    30  C   -0.000000  -0.000000  -0.000000   0.000000  -0.002947   0.000005
    31  H    0.000000   0.000000   0.000000  -0.000000   0.000030  -0.000000
    32  H   -0.000000  -0.000000  -0.000000  -0.000000  -0.000256   0.000000
    33  H    0.000000  -0.000000   0.000000  -0.000000   0.001742  -0.000015
    34  C   -0.009335   0.000011   0.000000   0.000002   0.000005   0.000000
    35  H    0.000317  -0.000000   0.000000  -0.000000  -0.000001  -0.000000
    36  H   -0.001064   0.000000  -0.000000   0.000001  -0.000000   0.000000
    37  C    0.011357   0.000012   0.000000  -0.000000  -0.000000   0.000000
    38  H    0.000723  -0.000001  -0.000000   0.000000   0.000000  -0.000000
    39  H    0.004836  -0.000008   0.000000  -0.000000   0.000000  -0.000000
    40  H   -0.000682   0.000010   0.000000  -0.000000  -0.000000  -0.000000
    41  C   -0.002071  -0.000005  -0.000000   0.000003  -0.000000   0.000000
    42  H   -0.000081  -0.000000   0.000000  -0.000000   0.000000  -0.000000
    43  H    0.001673   0.000037  -0.000000  -0.000001  -0.000000  -0.000000
    44  H    0.000015  -0.000000   0.000000   0.000001   0.000005  -0.000000
              19         20         21         22         23         24
     1  C   -0.000204  -0.007801   0.006877  -0.087873  -0.000007   0.000040
     2  C    0.000001   0.000113  -0.013490   0.315929   0.000064  -0.000024
     3  C   -0.000000  -0.000019  -0.002867  -0.090152   0.000036  -0.000001
     4  C    0.000000  -0.000002   0.000099   0.006258  -0.000000   0.000000
     5  C   -0.000000  -0.000115  -0.000006  -0.000110  -0.000000   0.000000
     6  C   -0.000001   0.005210   0.000055   0.006465   0.000004  -0.000000
     7  C    0.002913  -0.037898  -0.075295   0.011370   0.005862  -0.000937
     8  C    0.001072   0.004811   0.299589  -0.014316  -0.051937  -0.011108
     9  C    0.004311   0.000427  -0.087053  -0.003127  -0.009855   0.002139
    10  C   -0.040606   0.004332   0.006258   0.000122   0.000248  -0.000067
    11  C    0.356447  -0.041338  -0.000097  -0.000031   0.000011  -0.000001
    12  C   -0.037571   0.349390   0.006822   0.000012  -0.000165   0.000004
    13  H    0.000000   0.000000  -0.000058  -0.009761  -0.000000   0.000000
    14  H   -0.000000  -0.000000  -0.000000  -0.000121   0.000000   0.000000
    15  H    0.000000   0.000005  -0.000000   0.000005  -0.000000  -0.000000
    16  H    0.000005   0.003087   0.000003  -0.000094   0.000000  -0.000000
    17  H   -0.000173   0.000016  -0.012785  -0.000110   0.007359   0.004328
    18  H   -0.004981  -0.000178  -0.000121  -0.000000   0.000002   0.000026
    19  H    0.589776  -0.004887   0.000005  -0.000000  -0.000000   0.000000
    20  H   -0.004887   0.581701  -0.000093   0.000003   0.000003  -0.000000
    21  N    0.000005  -0.000093   7.135603  -0.169314   0.304113  -0.042163
    22  N   -0.000000   0.000003  -0.169314   7.115800   0.007031  -0.000333
    23  C   -0.000000   0.000003   0.304113   0.007031   5.054911   0.368885
    24  H    0.000000  -0.000000  -0.042163  -0.000333   0.368885   0.629682
    25  H   -0.000000  -0.000000  -0.046407  -0.000766   0.376452  -0.044610
    26  H    0.000000   0.000000  -0.035650   0.004379   0.376959  -0.039559
    27  C   -0.000000   0.000000   0.306692   0.003831  -0.064958  -0.024042
    28  H    0.000000  -0.000000  -0.057564   0.001663   0.001856  -0.001902
    29  H   -0.000000   0.000006  -0.036758  -0.000243   0.005787   0.000325
    30  C    0.000000  -0.000000  -0.059124  -0.000296  -0.025244   0.012129
    31  H   -0.000000   0.000000   0.004798   0.000006   0.002398  -0.000254
    32  H   -0.000000  -0.000000  -0.006149  -0.000017  -0.005465  -0.005582
    33  H   -0.000000  -0.000000  -0.002021   0.000001  -0.011906  -0.001747
    34  C   -0.000000   0.000000   0.005867   0.312137  -0.009370   0.000644
    35  H    0.000000   0.000000  -0.002687  -0.043003  -0.002047  -0.000101
    36  H    0.000000   0.000000   0.001390  -0.038618  -0.001189   0.000015
    37  C   -0.000000  -0.000000   0.001079  -0.051809   0.000338   0.000001
    38  H    0.000000   0.000000   0.000022   0.003780  -0.000012  -0.000000
    39  H    0.000000   0.000000   0.000021   0.004280  -0.000006   0.000000
    40  H   -0.000000  -0.000000  -0.000135  -0.019958  -0.000001  -0.000000
    41  C    0.000000  -0.000002   0.007491   0.290683  -0.000437   0.000029
    42  H   -0.000000  -0.000000  -0.000111  -0.032156   0.000006  -0.000002
    43  H   -0.000000  -0.000000  -0.000553  -0.048760   0.000037  -0.000001
    44  H    0.000000   0.000007   0.000512  -0.046150  -0.000086   0.000001
              25         26         27         28         29         30
     1  C   -0.000066  -0.000081  -0.000094  -0.000974   0.003873   0.000344
     2  C    0.000008   0.000080   0.001669   0.000053  -0.000641   0.000033
     3  C    0.000004   0.000007   0.000173   0.000215  -0.000183  -0.000004
     4  C   -0.000000  -0.000000  -0.000009  -0.000023   0.000006   0.000000
     5  C    0.000000   0.000000  -0.000045   0.000007   0.000014  -0.000000
     6  C   -0.000000   0.000000  -0.000082  -0.000018   0.000944  -0.000001
     7  C    0.000098   0.000574  -0.009653   0.001160   0.001090  -0.000459
     8  C    0.005268  -0.003097  -0.035138   0.004474  -0.001021  -0.007628
     9  C    0.000512   0.002522  -0.001493  -0.000457   0.000634  -0.002164
    10  C   -0.000000   0.000072   0.000006   0.000013  -0.000143  -0.000078
    11  C   -0.000000  -0.000015   0.000045  -0.000001  -0.000010  -0.000005
    12  C    0.000005  -0.000066  -0.000227   0.000014  -0.000447   0.000010
    13  H   -0.000001   0.000000  -0.000006   0.000013  -0.000001  -0.000000
    14  H   -0.000000   0.000000  -0.000000   0.000000  -0.000000  -0.000000
    15  H    0.000000   0.000000  -0.000000   0.000000  -0.000001  -0.000000
    16  H    0.000000  -0.000000  -0.000010  -0.000000   0.000060   0.000000
    17  H   -0.000066  -0.000595   0.000197  -0.000076   0.000119  -0.002947
    18  H   -0.000000  -0.000005  -0.000003  -0.000000   0.000001   0.000005
    19  H   -0.000000   0.000000  -0.000000   0.000000  -0.000000   0.000000
    20  H   -0.000000   0.000000   0.000000  -0.000000   0.000006  -0.000000
    21  N   -0.046407  -0.035650   0.306692  -0.057564  -0.036758  -0.059124
    22  N   -0.000766   0.004379   0.003831   0.001663  -0.000243  -0.000296
    23  C    0.376452   0.376959  -0.064958   0.001856   0.005787  -0.025244
    24  H   -0.044610  -0.039559  -0.024042  -0.001902   0.000325   0.012129
    25  H    0.574379  -0.025996   0.002743   0.003664  -0.000171  -0.004906
    26  H   -0.025996   0.552624   0.007651  -0.000125  -0.000236   0.001032
    27  C    0.002743   0.007651   4.910886   0.377918   0.379927   0.361955
    28  H    0.003664  -0.000125   0.377918   0.622356  -0.036234  -0.059332
    29  H   -0.000171  -0.000236   0.379927  -0.036234   0.562692  -0.034282
    30  C   -0.004906   0.001032   0.361955  -0.059332  -0.034282   5.201703
    31  H    0.000028  -0.000042  -0.025292   0.002033  -0.003182   0.353932
    32  H    0.001109   0.000490  -0.031894  -0.006242   0.004887   0.386297
    33  H    0.000655  -0.000171  -0.034347   0.005688  -0.003933   0.377586
    34  C   -0.001953  -0.001221  -0.003522  -0.000680   0.000113   0.000146
    35  H    0.007263   0.000296   0.000081  -0.000057  -0.000010   0.000017
    36  H    0.000585   0.000025   0.000032   0.004483  -0.000003  -0.000021
    37  C   -0.000308   0.000014   0.000046  -0.000082  -0.000000  -0.000000
    38  H    0.000009  -0.000005  -0.000002  -0.000000   0.000000   0.000000
    39  H    0.000004  -0.000001   0.000000  -0.000015  -0.000000   0.000000
    40  H    0.000009   0.000006   0.000000   0.000005   0.000000  -0.000000
    41  C   -0.000031   0.000224  -0.000023  -0.000049   0.000008   0.000005
    42  H   -0.000018   0.000207  -0.000002   0.000000   0.000000  -0.000000
    43  H   -0.000001   0.000037   0.000005   0.000004  -0.000001  -0.000000
    44  H    0.000007  -0.000042  -0.000003  -0.000002   0.000000   0.000000
              31         32         33         34         35         36
     1  C   -0.000006   0.000000  -0.000021   0.002763   0.000085   0.000643
     2  C    0.000003  -0.000004   0.000000  -0.049502   0.005896  -0.001218
     3  C    0.000000  -0.000000   0.000000  -0.001790  -0.000160   0.001885
     4  C   -0.000000   0.000000  -0.000000   0.000153   0.000009  -0.000195
     5  C    0.000000  -0.000000  -0.000000  -0.000018  -0.000000  -0.000016
     6  C    0.000000  -0.000000  -0.000000  -0.000149   0.000002  -0.000067
     7  C   -0.000002  -0.000021   0.000267   0.000379  -0.000089   0.000011
     8  C    0.000049   0.000179   0.004717  -0.000001   0.000111   0.000096
     9  C   -0.000094   0.000121   0.006558   0.000047   0.000017  -0.000001
    10  C    0.000008  -0.000009   0.000315  -0.000001  -0.000000  -0.000000
    11  C    0.000000   0.000000  -0.000020   0.000000   0.000000  -0.000000
    12  C   -0.000001   0.000000  -0.000012   0.000005  -0.000000   0.000001
    13  H    0.000000  -0.000000   0.000000  -0.009335   0.000317  -0.001064
    14  H    0.000000  -0.000000  -0.000000   0.000011  -0.000000   0.000000
    15  H    0.000000  -0.000000   0.000000   0.000000   0.000000  -0.000000
    16  H   -0.000000  -0.000000  -0.000000   0.000002  -0.000000   0.000001
    17  H    0.000030  -0.000256   0.001742   0.000005  -0.000001  -0.000000
    18  H   -0.000000   0.000000  -0.000015   0.000000  -0.000000   0.000000
    19  H   -0.000000  -0.000000  -0.000000  -0.000000   0.000000   0.000000
    20  H    0.000000  -0.000000  -0.000000   0.000000   0.000000   0.000000
    21  N    0.004798  -0.006149  -0.002021   0.005867  -0.002687   0.001390
    22  N    0.000006  -0.000017   0.000001   0.312137  -0.043003  -0.038618
    23  C    0.002398  -0.005465  -0.011906  -0.009370  -0.002047  -0.001189
    24  H   -0.000254  -0.005582  -0.001747   0.000644  -0.000101   0.000015
    25  H    0.000028   0.001109   0.000655  -0.001953   0.007263   0.000585
    26  H   -0.000042   0.000490  -0.000171  -0.001221   0.000296   0.000025
    27  C   -0.025292  -0.031894  -0.034347  -0.003522   0.000081   0.000032
    28  H    0.002033  -0.006242   0.005688  -0.000680  -0.000057   0.004483
    29  H   -0.003182   0.004887  -0.003933   0.000113  -0.000010  -0.000003
    30  C    0.353932   0.386297   0.377586   0.000146   0.000017  -0.000021
    31  H    0.580688  -0.029136  -0.026239  -0.000002  -0.000000  -0.000003
    32  H   -0.029136   0.563293  -0.036712  -0.000004  -0.000016  -0.000001
    33  H   -0.026239  -0.036712   0.557070  -0.000009   0.000000   0.000005
    34  C   -0.000002  -0.000004  -0.000009   4.928991   0.385438   0.387270
    35  H   -0.000000  -0.000016   0.000000   0.385438   0.583495  -0.033085
    36  H   -0.000003  -0.000001   0.000005   0.387270  -0.033085   0.557712
    37  C    0.000000   0.000000   0.000000   0.344235  -0.047926  -0.046310
    38  H   -0.000000   0.000000  -0.000000  -0.028177  -0.007952   0.004065
    39  H   -0.000000  -0.000000  -0.000000  -0.032810   0.004470  -0.007465
    40  H    0.000000  -0.000000  -0.000000  -0.042227   0.001376   0.003715
    41  C   -0.000000   0.000000  -0.000000  -0.059790  -0.001256   0.006960
    42  H    0.000000   0.000000   0.000000  -0.005437   0.003230   0.000132
    43  H    0.000000  -0.000000   0.000000  -0.001913  -0.000887  -0.000542
    44  H   -0.000000   0.000000   0.000000   0.005810   0.000193  -0.000193
              37         38         39         40         41         42
[...]
 0,-0.12461296,0.26961213,-0.00182546,0.00172448,-0.00012565,0.01110066
 ,0.00140038,-0.01649720,-0.00165010,0.00259599,-0.00153757,0.00067065,
 -0.00024334,0.00094738,-0.00084253,0.00060183,-0.00045542,0.00018085,0
 .00002462,0.00069580,-0.00218679,0.00077398,-0.00170587,-0.00010908,-0
 .00006221,-0.00053455,-0.00018549,-0.00040715,0.00023540,0.00012073,-0
 .00034886,-0.00032511,0.00004888,0.00016096,0.00035474,-0.00005304,-0.
 00020411,-0.00043543,0.00015255,0.00002487,-0.00018601,-0.00006407,0.0
 0021463,0.00002310,-0.00003757,-0.00001235,-0.00006772,-0.00008872,0.0
 0007546,-0.00003368,0.00000209,-0.00001401,0.00004063,0.00001327,0.000
 01469,-0.00000527,-0.00004425,-0.00003657,0.00000020,-0.00008163,0.000
 13271,-0.00000303,-0.00020531,-0.00019948,0.00031306,-0.10313353,0.011
 70821,0.01766185,0.00000987,-0.00016484,0.00008496,0.00000618,0.000032
 19,-0.00002474,-0.00001741,0.00000577,-0.00001321,0.00000075,0.0000278
 2,-0.00000248,-0.00005283,0.00031348,0.00001329,0.00000564,-0.00001539
 ,0.00000580,0.00005159,-0.00002537,0.00006562,0.00005383,-0.00008762,0
 .00002968,0.00001232,0.00000613,0.00002889,-0.00001572,-0.00002056,-0.
 00002069,-0.00001135,0.00001230,-0.00001149,-0.00885728,-0.01837098,0.
 03278489,0.00041162,-0.00080788,0.00040135,-0.00612983,-0.00008899,0.0
 0257679,-0.00064229,0.00010325,0.00134575,0.00017967,-0.00014382,0.000
 05174,-0.00002672,-0.00036884,-0.00015625,-0.00070407,-0.00048339,0.00
 042015,0.62461116,-0.00519886,0.00214690,0.00004434,0.00583200,-0.0341
 5296,0.02575908,0.00457695,0.00329693,-0.00051992,0.00043095,-0.002790
 72,-0.00002206,-0.00154273,0.00162119,-0.00055569,0.00071004,-0.001135
 42,0.00044770,-0.00000423,0.00120850,0.00019843,-0.00077935,-0.0000984
 3,-0.00054086,0.00050512,0.00006582,-0.00002597,-0.00017842,-0.0000750
 0,0.00046044,-0.00013864,-0.00033918,0.00000651,0.00016580,-0.00010209
 ,-0.00018813,-0.00017335,0.00011093,0.00040391,0.00029160,-0.00017267,
 0.00005007,-0.00002729,0.00004231,0.00005440,-0.00017107,-0.00000273,-
 0.00009288,-0.00005729,-0.00008181,-0.00005853,-0.00003129,-0.00002536
 ,-0.00000018,-0.00005036,-0.00005481,0.00002112,-0.00002743,0.00006406
 ,-0.00006806,-0.00018301,-0.00058418,0.00012501,-0.00184941,-0.0879129
 0,0.05769653,-0.00029476,0.00049513,-0.00025202,0.00006993,-0.00013383
 ,0.00007997,0.00000381,-0.00001117,0.00000492,0.00002927,-0.00024238,0
 .00006889,0.00014191,0.00033546,-0.00004635,-0.00000077,0.00001008,0.0
 0003948,0.00009296,-0.00006491,0.00014623,0.00002838,-0.00011408,0.000
 07506,0.00002024,0.00000381,0.00003162,-0.00002265,-0.00005086,-0.0000
 5723,-0.00001445,0.00001217,-0.00001120,-0.00651877,0.00014872,0.00454
 470,0.00168214,0.00107806,-0.00207024,0.00157730,0.00036597,-0.0011258
 2,0.00124374,-0.00026951,0.00047174,0.00063714,0.00025526,0.00007138,-
 0.00024083,-0.00026120,0.00004795,-0.00001801,0.00043218,0.00030440,-0
 .01945013,0.54601149,0.00055065,-0.00138517,0.00104338,-0.00967504,0.0
 0451680,-0.01202682,0.00333110,-0.00447473,0.00233325,-0.00129925,-0.0
 0024158,0.00084053,0.00057140,-0.00022345,0.00002358,0.00073307,0.0003
 3466,0.00014908,-0.00341065,-0.00096582,-0.00245120,-0.00190072,0.0007
 5257,0.00099647,-0.00028043,0.00003908,0.00012122,0.00028643,-0.000160
 73,-0.00021251,0.00047463,0.00052705,-0.00011934,-0.00036038,0.0004488
 0,-0.00052723,-0.00010802,0.00016606,-0.00023614,0.00017310,-0.0005358
 5,0.00009324,0.00010708,-0.00010082,0.00001080,0.00032000,-0.00027800,
 0.00010322,-0.00001610,0.00003516,0.00001218,0.00004228,0.00003320,-0.
 00000968,0.00005945,0.00004468,-0.00003531,0.00003055,-0.00005078,0.00
 002933,0.00178928,0.00087234,0.00045887,0.03089629,0.07629424,-0.17522
 320,0.00024004,-0.00045189,-0.00019160,0.00003065,0.00014637,0.0000713
 1,-0.00001406,-0.00002615,-0.00005283,-0.00008730,-0.00011399,-0.00004
 518,-0.00019486,0.00001105,-0.00041169,-0.00001018,-0.00002294,-0.0000
 2030,-0.00004363,-0.00000750,-0.00009697,-0.00001726,-0.00000114,0.000
 04360,0.00002289,-0.00001037,0.00003651,0.00001837,0.00004884,0.000031
 12,0.00002804,0.00000790,0.00000666,0.01051876,0.00278496,-0.01643294,
 -0.00249144,0.00090912,0.00048156,0.00051276,0.00008083,0.00097576,-0.
 00154679,-0.00081715,0.00398043,-0.00179424,-0.00038766,-0.00139512,0.
 00025296,-0.00023575,0.00011475,-0.00018342,0.00114188,-0.00067193,-0.
 00704146,0.02807133,0.48725897,0.00008632,0.00013027,0.00009363,0.0007
 8169,-0.00072959,0.00075837,0.00002304,-0.00009472,-0.00017526,0.00005
 032,-0.00003318,0.00003289,-0.00003672,0.00002773,-0.00004863,0.000003
 29,-0.00008369,0.00002112,0.00016832,0.00012034,0.00013277,-0.00020303
 ,0.00014888,0.00000347,0.00000229,-0.00020517,0.00006011,-0.00000690,-
 0.00017423,0.00001256,0.00002435,0.00020316,-0.00005329,-0.00035286,-0
 .00011889,-0.00017805,0.00005399,-0.00000319,-0.00002356,-0.00000029,0
 .00002784,0.00003286,-0.00000545,0.00000882,-0.00000988,-0.00003830,0.
 00002332,0.00000651,-0.00003279,-0.00002288,-0.00003884,-0.00000651,-0
 .00001831,-0.00000615,-0.00000654,-0.00000801,0.00000865,0.00010240,-0
 .00006178,-0.00000370,0.00011839,-0.00005227,-0.00002217,0.00200108,-0
 .00420640,0.00018418,-0.00009378,0.00015929,-0.00014078,0.00002084,-0.
 00003513,0.00004291,0.00000537,-0.00001965,0.00002803,0.00006420,-0.00
 010836,0.00000544,0.00000924,0.00005649,-0.00005735,0.00000031,0.00000
 110,0.00001158,0.00001889,-0.00002308,0.00002064,0.00000403,-0.0000202
 8,0.00002340,0.00000607,-0.00000118,0.00000869,-0.00000270,-0.00000726
 ,-0.00001195,-0.00000362,0.00000328,-0.00000534,0.00052868,-0.00204572
 ,-0.00013653,0.00047082,0.00047264,-0.00024581,0.00018195,-0.00018874,
 -0.00019585,-0.00002618,0.00007518,0.00018468,-0.00001212,0.00000382,-
 0.00000765,0.00000721,0.00006583,0.00001001,0.00000291,-0.00002475,-0.
 00004055,-0.09434601,0.09555874,0.00708201,0.09401628,0.00004715,-0.00
 008239,-0.00020068,-0.00469029,-0.00054440,-0.00027248,0.00098229,-0.0
 0067645,0.00072905,-0.00032981,-0.00013037,0.00001601,0.00009833,-0.00
 008180,0.00005948,0.00003775,0.00011051,-0.00002829,0.00006229,-0.0002
 0867,0.00008839,0.00010727,-0.00000631,-0.00005919,-0.00015319,-0.0000
 2864,0.00006459,0.00006935,0.00000555,-0.00015806,0.00002189,0.0001175
 6,0.00002304,-0.00007152,-0.00000899,0.00008819,-0.00004946,0.00001693
 ,-0.00003481,0.00006003,-0.00012819,0.00000653,0.00002618,-0.00001687,
 0.00000893,0.00006211,-0.00002383,0.00001333,0.00001757,0.00002783,0.0
 0001801,0.00001042,0.00001252,0.00000004,0.00001541,0.00001110,-0.0000
 0478,-0.00002448,0.00000403,0.00001039,0.00003424,0.00015510,0.0001271
 6,0.00868237,-0.01496084,0.00995951,0.00012456,-0.00020365,0.00005957,
 -0.00003129,0.00005380,-0.00002620,-0.00000983,0.00000684,0.00001612,-
 0.00001290,0.00007631,-0.00004032,-0.00001574,-0.00002806,-0.00001636,
 -0.00000737,-0.00000531,0.00000555,-0.00001934,0.00002081,-0.00003007,
 -0.00000718,0.00001009,-0.00000704,0.00000043,-0.00000018,-0.00000149,
 0.00000468,0.00001579,0.00001403,-0.00000062,-0.00000345,0.00000109,0.
 00159929,0.00029037,-0.00089514,-0.00089699,0.00020997,0.00056967,-0.0
 0008195,0.00052297,0.00003351,-0.00036213,-0.00034854,0.00013904,-0.00
 008927,0.00004192,-0.00008034,0.00002579,0.00017607,-0.00009304,-0.000
 11979,-0.00022709,-0.00024659,0.09369267,-0.26103469,-0.01893914,-0.10
 509464,0.28664852,0.00014956,0.00010779,0.00002458,0.00411243,0.003885
 63,-0.00204622,-0.00156302,0.00102889,-0.00085574,0.00030139,0.0003944
 4,0.00003385,-0.00002527,0.00005793,-0.00003877,-0.00008457,-0.0000595
 4,0.00004109,0.00016396,0.00017823,0.00003968,-0.00015298,-0.00004334,
 0.00001887,0.00004621,-0.00000307,-0.00003227,-0.00004690,-0.00000193,
 0.00005779,-0.00002362,-0.00005756,0.00000490,0.00004559,-0.00009147,0
 .00001160,0.00004359,-0.00005675,-0.00003238,-0.00009246,0.00016919,-0
 .00002372,-0.00002863,0.00000825,-0.00001641,-0.00005738,0.00002467,-0
 .00001697,-0.00001840,-0.00001703,-0.00000843,0.00000553,0.00000484,0.
 00000297,-0.00000318,-0.00001364,0.00000039,-0.00002794,0.00002560,-0.
 00001100,0.00005890,-0.00007150,-0.00001935,-0.01533758,0.03247422,-0.
 00589161,-0.00007577,0.00011705,-0.00010518,0.00003333,-0.00003827,0.0
 0003334,0.00000436,-0.00000950,-0.00000141,-0.00000763,-0.00013671,0.0
 0000504,0.00000343,0.00005684,-0.00003955,0.00000044,0.00000269,0.0000
 0509,0.00002241,-0.00001797,0.00002353,0.00000828,-0.00002268,0.000016
 82,0.00000520,-0.00000099,0.00000809,-0.00000541,-0.00000783,-0.000010
 52,-0.00000219,0.00000211,-0.00000314,-0.00232881,0.00129568,0.0014376
 6,0.00043178,-0.00091544,-0.00000436,-0.00031397,-0.00013343,0.0001093
 0,0.00049294,-0.00038715,-0.00014800,0.00014780,0.00011710,0.00008237,
 -0.00011101,0.00003018,-0.00013856,0.00000173,-0.00001326,-0.00010548,
 0.01090726,-0.02409002,-0.05225024,-0.00831995,0.01314647,0.06111249,-
 0.00027355,-0.00026375,-0.00003818,-0.00011446,0.00016952,0.00023205,-
 0.00017062,0.00005285,0.00001318,-0.00008313,0.00009042,-0.00006826,0.
 00006231,0.00010609,-0.00001613,0.00007807,-0.00012713,0.00000365,-0.0
 0066583,0.00000068,-0.00052698,-0.00026692,0.00033067,0.00049537,0.000
 04057,0.00015074,-0.00010044,-0.00001089,0.00003957,0.00012234,0.00008
 410,-0.00003196,-0.00002066,0.00015641,0.00008513,-0.00046783,0.000005
 50,-0.00001969,0.00001599,-0.00000123,0.00001409,-0.00001891,-0.000005
 41,0.00001736,0.00001544,-0.00000787,-0.00002555,-0.00000599,-0.000006
 98,-0.00002064,-0.00000892,-0.00001603,-0.00001517,0.00000222,-0.00003
 618,-0.00001505,0.00001181,-0.00004618,0.00004932,0.00001237,0.0001569
 7,-0.00000277,-0.00030136,0.00606945,0.00386938,0.00432768,-0.00005273
 ,0.00012865,0.00000915,-0.00000062,-0.00004449,-0.00001135,0.00001710,
 -0.00000784,-0.00001470,-0.00000551,-0.00001218,0.00000574,0.00000556,
 -0.00011204,0.00004423,0.00000524,0.00000528,-0.00002155,0.00000055,-0
 .00001484,-0.00001227,-0.00000891,0.00002526,-0.00002880,-0.00001182,0
 .,-0.00001687,-0.00000026,-0.00000479,-0.00000045,0.00000501,-0.000002
 95,0.00000885,0.00073178,0.00086064,0.00110846,0.00014984,-0.00004590,
 -0.00004684,-0.00000572,-0.00015213,-0.00018724,-0.00040521,-0.0001310
 4,-0.00056932,0.00048984,0.00017905,0.00014665,-0.00009968,0.00005319,
 -0.00008041,-0.00146678,-0.00063041,0.00053348,-0.09541814,-0.05058990
 ,-0.07423664,0.00612387,0.00758472,0.01100278,0.09614765,0.00095735,-0
 .00052592,-0.00035009,-0.00209696,0.00455951,0.00045277,-0.00059337,-0
 .00044538,-0.00043784,0.00007139,0.00010970,-0.00023458,0.00001349,-0.
 00029041,0.00011946,-0.00007858,0.00038723,-0.00019566,-0.00018949,-0.
 00017251,-0.00002239,-0.00002447,0.00006417,0.00013418,-0.00006660,0.0
 0009480,-0.00002831,0.00004300,0.00003471,-0.00005172,0.00002691,0.000
 03333,-0.00000731,0.00000228,0.00003080,-0.00009905,-0.00003728,0.0000
 0875,0.00014075,-0.00001932,0.00002238,0.00000902,-0.00000454,0.000006
 99,0.00001626,0.00002509,-0.00000094,0.00002343,0.00002141,0.00001014,
 0.00001921,-0.00000057,-0.00000515,0.00000180,-0.00000783,0.00000084,0
 .00000970,-0.00001107,0.00001206,0.00001692,0.00009272,0.00014891,0.00
 000156,0.01008200,0.00938363,0.02068742,0.00009513,-0.00011931,0.00010
 755,-0.00003392,0.00002653,-0.00004537,0.00000226,0.00000677,-0.000014
 03,-0.00002821,0.00008647,-0.00001973,-0.00003133,-0.00009072,0.000052
 33,0.00000276,-0.00000183,-0.00001807,-0.00002014,0.00001449,-0.000017
 46,-0.00000610,0.00002513,-0.00002609,-0.00000839,0.00000198,-0.000012
 47,0.00000245,0.00000496,0.00000902,0.00000546,-0.00000343,0.00000662,
 0.00052849,0.00047318,-0.00050856,-0.00027973,-0.00034621,0.00021679,0
 .00002538,0.00004581,-0.00002579,-0.00072281,0.00022392,-0.00087605,0.
 00028732,-0.00014190,0.00029055,-0.00019601,-0.00014338,-0.00005322,-0
 .00034087,-0.00037728,0.00044346,-0.04984379,-0.11497402,-0.09190386,-
 0.01372044,-0.01537209,-0.02234932,0.05649516,0.11835955,-0.00193944,0
 .00090169,0.00011180,0.00527230,-0.00802553,0.00096063,0.00005470,0.00
 194077,-0.00098230,0.00034800,-0.00059248,0.00010670,-0.00063814,0.000
 65909,-0.00027714,0.00025445,-0.00031413,0.00045755,0.00046836,0.00058
 169,-0.00007852,0.00025018,-0.00005614,-0.00000464,0.00002170,-0.00010
 929,0.00001912,-0.00005224,-0.00004326,0.00001140,-0.00008570,-0.00004
 820,0.00004235,-0.00000016,-0.00023634,0.00004270,0.00006725,0.0000131
 9,-0.00003601,0.00002786,0.00011243,0.00000376,-0.00002760,0.00002824,
 -0.00002925,-0.00012769,0.00001466,-0.00004808,-0.00000674,-0.00003100
 ,-0.00000367,-0.00001220,-0.00001950,0.00000270,-0.00003588,-0.0000274
 4,0.00002198,-0.00000090,0.00003808,-0.00002591,-0.00033531,-0.0003156
 0,-0.00014922,-0.00813776,0.00553496,-0.03848800,-0.00008540,0.0001418
 6,0.00003444,-0.00000409,-0.00005934,-0.00003252,0.00000893,0.00000583
 ,0.00000378,0.00001196,-0.00001240,0.00000051,0.00006503,0.00010171,0.
 00009923,0.00000476,0.00000383,0.00000361,0.00004561,-0.00003687,0.000
 04701,0.00001897,-0.00004317,-0.00000655,-0.00000459,0.00000723,-0.000
 00441,-0.00001552,-0.00002642,-0.00002175,-0.00001032,0.00000097,-0.00
 000116,-0.00477046,0.00015493,0.00099559,0.00039993,-0.00033891,-0.000
 01934,0.00037995,0.00030597,0.00008734,0.00046854,0.00025878,0.0000677
 6,0.00021900,-0.00002067,0.00057604,0.00000940,0.00015367,-0.00011805,
 0.00072546,-0.00039918,0.00066274,-0.07548579,-0.09442185,-0.18091361,
 -0.00139361,-0.00355315,-0.00072243,0.08353307,0.09609059,0.21245095,-
 0.00022056,0.00014230,-0.00071592,-0.00012973,0.00119064,0.00013309,-0
 .00001456,-0.00037363,0.00004024,-0.00019868,0.00003984,-0.00005499,0.
 00013995,0.00012608,-0.00006135,0.00019302,-0.00033178,0.00005283,-0.0
 0200150,0.00054831,-0.00334613,-0.00042580,0.00038185,-0.00023299,0.00
 010001,0.00023555,0.00004846,0.00009280,-0.00004681,0.00010040,-0.0000
 5303,-0.00003010,0.00003368,-0.00206384,0.00021078,-0.00056330,0.00000
 259,0.00002314,0.00000769,0.00000060,-0.00001081,-0.00000083,0.0000047
 4,-0.00000470,0.00001888,-0.00001207,-0.00004685,0.00004592,0.00000202
 ,0.00000412,0.00002294,0.00001343,0.00003098,0.00000992,0.00001647,0.0
 0002316,-0.00003090,0.00004071,0.00002483,0.00000745,0.00002503,0.0000
 3778,0.00002778,-0.00240022,-0.00109831,0.00327770,0.00000894,-0.00004
 922,0.00003013,0.00000422,0.00000607,-0.00001476,-0.00000268,0.0000022
 6,-0.00000836,-0.00001585,0.00000581,-0.00000331,-0.00002187,0.0000496
 4,-0.00006412,0.00000142,-0.00000746,-0.00000832,0.00001263,-0.0000485
 9,-0.00003171,0.00000918,-0.00001552,-0.00001658,0.00000104,-0.0000016
 6,0.00000389,-0.00000336,0.00000183,-0.00000080,0.00000212,0.00000638,
 0.00000715,0.00120535,-0.00115641,-0.00019337,0.00007896,-0.00010630,-
 0.00009987,-0.00016183,-0.00008449,-0.00004684,0.00002806,0.00017146,-
 0.00001764,-0.00003135,-0.00001598,0.00002105,-0.00001101,-0.00003220,
 0.00000958,0.00003591,-0.00005817,0.00010010,-0.32090313,-0.02603501,0
 .04664009,-0.00970236,-0.00129900,0.00063774,-0.01114916,-0.00041820,0
 .00051411,0.34750338,0.00068607,-0.00044211,0.00087408,-0.00123403,0.0
 0047569,-0.00047378,-0.00007863,-0.00006843,-0.00000735,0.00008888,0.0
 0004643,0.00011118,-0.00005420,-0.00020244,-0.00002066,-0.00007192,0.0
 0015465,-0.00000203,0.00051188,0.00043317,0.00020308,-0.00020683,0.000
 05901,-0.00022793,-0.00008146,-0.00020800,-0.00002193,0.00007645,-0.00
 026360,-0.00011338,-0.00001648,0.00013637,0.00007182,-0.00012728,0.000
 20555,0.00004093,0.00002522,0.00004706,-0.00004087,-0.00000333,0.00001
 081,0.00001340,-0.00000119,0.00000389,-0.00001463,-0.00004027,0.000033
 28,0.00005688,-0.00000075,-0.00001208,-0.00000219,-0.00000085,-0.00001
 337,-0.00000385,-0.00001703,0.00000327,0.00000121,0.00018961,-0.000118
 88,-0.00000827,0.00006417,-0.00002569,-0.00001112,-0.01741240,-0.00246
 414,0.00555953,-0.00003660,0.00003456,-0.00003072,0.00000475,-0.000005
 09,0.00001083,0.00000237,-0.00000929,0.00000934,0.00003820,-0.00001844
 ,0.00000146,-0.00001979,0.00003399,-0.00001670,0.00000429,-0.00000332,
 0.00000053,0.00000664,-0.00001058,0.00000153,0.00000658,-0.00000734,0.
 00000743,0.00000215,0.00000086,0.00000419,-0.00000071,-0.00000273,-0.0
 0000363,-0.00000154,0.00000310,-0.00000300,0.00077388,-0.00246884,0.00
 167807,-0.00008708,0.00057473,0.00000019,-0.00074338,0.00036587,0.0002
 7555,-0.00003753,0.00026514,0.00017193,-0.00002166,-0.00000927,-0.0000
 1056,0.00003371,0.00002758,-0.00004442,0.00004120,-0.00012984,-0.00008
 693,-0.02224674,-0.05302007,0.00406755,0.03001481,0.00558621,-0.004589
 42,-0.01803755,-0.00116627,0.00168068,0.02800837,0.05216859,-0.0002141
 3,0.00103331,-0.00048311,0.00109530,-0.00124385,0.00127391,-0.00016085
 ,0.00041227,-0.00011196,0.00022492,-0.00020644,-0.00007912,-0.00019448
 ,-0.00008628,0.00000794,-0.00008174,0.00005413,-0.00011691,-0.00095715
 ,0.00048407,-0.00074089,0.00017340,-0.00057262,-0.00130000,0.00010426,
 -0.00013671,0.00007944,0.00000697,0.00012697,-0.00006676,-0.00001380,0
 .00013809,-0.00000766,-0.00108571,-0.00019064,0.00045966,-0.00004900,-
 0.00009160,0.00003189,-0.00001103,0.00000940,-0.00000238,-0.00001254,-
 0.00001769,0.00002701,-0.00002961,0.00000149,-0.00000261,0.00000563,0.
 00004510,0.00000568,0.00002943,0.00002594,0.00000075,0.00007047,0.0000
 3676,-0.00003309,0.00013933,-0.00012597,0.00002141,-0.00046732,-0.0001
 6323,0.00030701,0.03403300,0.00213573,-0.00965777,0.00005889,-0.000157
 94,-0.00003526,-0.00000742,0.00005250,0.00002081,-0.00002824,0.0000203
 8,0.00006163,0.00002896,0.00000796,-0.00002122,0.00004592,0.00023617,-
 0.00010534,-0.00001913,-0.00000650,0.00005926,0.00001574,-0.00000148,-
 0.00000126,0.00001260,-0.00005975,0.00004277,0.00002154,0.00000026,0.0
 0002718,-0.00000385,0.00000726,-0.00000178,-0.00002011,0.00000117,-0.0
 0001242,-0.00117608,0.00459205,-0.00416235,-0.00023876,-0.00009729,0.0
 0015327,0.00177017,0.00022209,-0.00061224,-0.00031618,0.00003981,-0.00
 059917,0.00017475,-0.00006811,0.00036923,0.00002738,0.00004882,0.00003
 093,0.00014087,-0.00025641,0.00048501,0.03568026,0.00492177,-0.0558919
 8,0.00235044,-0.00051054,-0.00054771,-0.02484439,-0.00155241,0.0051528
 7,-0.04627871,-0.00910804,0.06597532\\0.00000358,-0.00000106,0.0000016
 7,0.00000046,-0.00000171,-0.00000334,0.00000258,-0.00000111,0.00000054
 ,0.00000359,-0.00000009,0.00000069,0.00000287,0.00000139,0.00000206,0.
 00000220,0.00000199,0.00000213,0.00000084,0.00000100,0.00000052,-0.000
 00427,0.00000040,0.00000216,-0.00000225,0.00000172,0.00000082,-0.00000
 118,0.00000161,0.00000177,0.00000079,0.00000242,0.00000211,0.00000108,
 0.00000155,0.00000382,0.00000269,-0.00000174,-0.00000095,0.00000392,-0
 .00000082,0.00000099,0.00000311,0.00000145,0.00000315,0.00000195,0.000
 00241,0.00000333,-0.00000313,0.00000159,0.00000032,-0.00000187,0.00000
 243,0.00000211,0.00000142,0.00000223,0.00000317,0.00000289,0.00000136,
 0.00000275,0.00000039,0.00000208,-0.00000091,0.00000425,-0.00000026,0.
 00000073,-0.00000388,0.00000021,-0.00000022,-0.00000510,0.00000062,-0.
 00000124,-0.00000398,-0.00000039,-0.00000202,-0.00000368,-0.00000059,-
 0.00000190,-0.00000402,-0.00000007,-0.00000006,-0.00000307,0.00000102,
 -0.00000087,-0.00000112,0.00000198,0.00000117,-0.00000366,0.00000377,0
 .00000228,-0.00000449,0.00000307,0.00000165,-0.00000542,0.00000238,0.0
 0000073,-0.00000403,0.00000319,0.00000202,-0.00000223,-0.00000188,-0.0
 0000314,-0.00000065,-0.00000385,-0.00000379,0.00000013,-0.00000287,-0.
 00000297,0.00000307,-0.00000388,-0.00000349,0.00000169,-0.00000509,-0.
 00000440,0.00000342,-0.00000372,-0.00000299,0.00000295,-0.00000419,-0.
 00000336,0.00000187,-0.00000186,-0.00000397,0.00000095,-0.00000302,-0.
 00000170,0.00000351,-0.00000288,-0.00000140,0.00000182,-0.00000080,0.\
 \\@
 The archive entry for this job was punched.


 THE WHOLE OF SCIENCE IS NOTHING MORE THAN A REFINEMENT OF EVERYDAY THINKING.
                                                              -- A. EINSTEIN
 Job cpu time:       0 days  3 hours 26 minutes 54.0 seconds.
 Elapsed time:       0 days  0 hours 26 minutes 19.2 seconds.
 File lengths (MBytes):  RWF=    784 Int=      0 D2E=      0 Chk=     23 Scr=      1
 Normal termination of Gaussian 16 at Sun Oct 24 03:02:47 2021.
