 Entering Gaussian System, Link 0=/home/rtong2/g16/g16
 Input=/home/rtong2/g16/093021/benzbenzNCHCH3-3.gjf
 Output=/home/rtong2/g16/093021/benzbenzNCHCH3-3.log
 Initial command:
 /home/rtong2/g16/l1.exe "/tmp/Gau-10862.inp" -scrdir="/tmp/"
 Default is to use a total of  16 processors:
                               16 via shared-memory
                                1 via Linda
 Entering Link 1 = /home/rtong2/g16/l1.exe PID=     10864.
  
 Copyright (c) 1988-2019, Gaussian, Inc.  All Rights Reserved.
  
 This is part of the Gaussian(R) 16 program.  It is based on
 the Gaussian(R) 09 system (copyright 2009, Gaussian, Inc.),
 the Gaussian(R) 03 system (copyright 2003, Gaussian, Inc.),
 the Gaussian(R) 98 system (copyright 1998, Gaussian, Inc.),
 the Gaussian(R) 94 system (copyright 1995, Gaussian, Inc.),
 the Gaussian 92(TM) system (copyright 1992, Gaussian, Inc.),
 the Gaussian 90(TM) system (copyright 1990, Gaussian, Inc.),
 the Gaussian 88(TM) system (copyright 1988, Gaussian, Inc.),
 the Gaussian 86(TM) system (copyright 1986, Carnegie Mellon
 University), and the Gaussian 82(TM) system (copyright 1983,
 Carnegie Mellon University). Gaussian is a federally registered
 trademark of Gaussian, Inc.
  
 This software contains proprietary and confidential information,
 including trade secrets, belonging to Gaussian, Inc.
  
 This software is provided under written license and may be
 used, copied, transmitted, or stored only in accord with that
 written license.
  
 The following legend is applicable only to US Government
 contracts under FAR:
  
                    RESTRICTED RIGHTS LEGEND
  
 Use, reproduction and disclosure by the US Government is
 subject to restrictions as set forth in subparagraphs (a)
 and (c) of the Commercial Computer Software - Restricted
 Rights clause in FAR 52.227-19.
  
 Gaussian, Inc.
 340 Quinnipiac St., Bldg. 40, Wallingford CT 06492
  
  
 ---------------------------------------------------------------
 Warning -- This program may not be used in any manner that
 competes with the business of Gaussian, Inc. or will provide
 assistance to any competitor of Gaussian, Inc.  The licensee
 of this program is prohibited from giving any competitor of
 Gaussian, Inc. access to this program.  By using this program,
 the user acknowledges that Gaussian, Inc. is engaged in the
 business of creating and licensing software in the field of
 computational chemistry and represents and warrants to the
 licensee that it is not a competitor of Gaussian, Inc. and that
 it will not use this program in any manner prohibited above.
 ---------------------------------------------------------------
  

 Cite this work as:
 Gaussian 16, Revision C.01,
 M. J. Frisch, G. W. Trucks, H. B. Schlegel, G. E. Scuseria, 
 M. A. Robb, J. R. Cheeseman, G. Scalmani, V. Barone, 
 G. A. Petersson, H. Nakatsuji, X. Li, M. Caricato, A. V. Marenich, 
 J. Bloino, B. G. Janesko, R. Gomperts, B. Mennucci, H. P. Hratchian, 
 J. V. Ortiz, A. F. Izmaylov, J. L. Sonnenberg, D. Williams-Young, 
 F. Ding, F. Lipparini, F. Egidi, J. Goings, B. Peng, A. Petrone, 
 T. Henderson, D. Ranasinghe, V. G. Zakrzewski, J. Gao, N. Rega, 
 G. Zheng, W. Liang, M. Hada, M. Ehara, K. Toyota, R. Fukuda, 
 J. Hasegawa, M. Ishida, T. Nakajima, Y. Honda, O. Kitao, H. Nakai, 
 T. Vreven, K. Throssell, J. A. Montgomery, Jr., J. E. Peralta, 
 F. Ogliaro, M. J. Bearpark, J. J. Heyd, E. N. Brothers, K. N. Kudin, 
 V. N. Staroverov, T. A. Keith, R. Kobayashi, J. Normand, 
 K. Raghavachari, A. P. Rendell, J. C. Burant, S. S. Iyengar, 
 J. Tomasi, M. Cossi, J. M. Millam, M. Klene, C. Adamo, R. Cammi, 
 J. W. Ochterski, R. L. Martin, K. Morokuma, O. Farkas, 
 J. B. Foresman, and D. J. Fox, Gaussian, Inc., Wallingford CT, 2019.
 
 ******************************************
 Gaussian 16:  ES64L-G16RevC.01  3-Jul-2019
                 1-Oct-2021 
 ******************************************
 %mem=40GB
 %nprocshared=16
 Will use up to   16 processors via shared memory.
 %chk=/home/rtong2/g16/093021/benzbenzNCHCH3-2.chk
 ------------------------------------
 # opt b3lyp/6-31g(d) guess=read freq
 ------------------------------------
 1/18=20,19=15,26=3,38=1/1,3;
 2/9=110,12=2,17=6,18=5,40=1/2;
 3/5=1,6=6,7=1,11=2,25=1,30=1,71=1,74=-5,116=-2/1,2,3;
 4/5=1/1;
 5/5=2,38=6/2;
 6/7=2,8=2,9=2,10=2,28=1/1;
 7//1,2,3,16;
 1/18=20,19=15,26=3/3(2);
 2/9=110/2;
 99//99;
 2/9=110/2;
 3/5=1,6=6,7=1,11=2,25=1,30=1,71=1,74=-5/1,2,3;
 4/5=5,16=3,69=1/1;
 5/5=2,38=5/2;
 7//1,2,3,16;
 1/18=20,19=15,26=3/3(-5);
 2/9=110/2;
 6/7=2,8=2,9=2,10=2,19=2,28=1/1;
 99/9=1/99;
 --------------
 benzbenzNCHCH3
 --------------
 Symbolic Z-matrix:
 Charge =  0 Multiplicity = 1
 C                     4.25052  -0.82728   0.45326 
 C                     3.05829  -1.55038   0.49552 
 C                     1.90671  -1.12161  -0.1753 
 C                     1.96899   0.09027  -0.89898 
 C                     3.17541   0.8094   -0.9531 
 C                     4.30882   0.35712  -0.28185 
 H                     5.13001  -1.19526   0.97476 
 H                     3.01723  -2.48236   1.05634 
 H                     3.22184   1.71116  -1.55764 
 H                     5.23537   0.92206  -0.34338 
 C                     0.63503  -1.93714  -0.0928 
 H                    -0.01272  -1.6944   -0.93959 
 H                     0.89371  -3.00123  -0.17134 
 C                    -0.16271  -1.7521    1.22929 
 H                    -0.95758  -2.50567   1.24382 
 H                     0.50565  -1.95719   2.07469 
 C                    -0.7866   -0.38774   1.40689 
 C                    -0.13191   0.6208    2.12095 
 C                    -2.04504  -0.09377   0.83345 
 C                    -0.69599   1.8876    2.28643 
 H                     0.83913   0.40337   2.55895 
 C                    -2.61984   1.17434   1.0168 
 C                    -1.94889   2.16186   1.73744 
 H                    -0.16861   2.64689   2.85764 
 H                    -3.61485   1.36419   0.62296 
 H                    -2.4124    3.13444   1.88246 
 N                     0.83308   0.5154   -1.6229 
 N                    -2.7287   -1.12456   0.15358 
 C                     0.47482   1.73738  -1.57068 
 C                    -3.31292  -0.88449  -0.95335 
 H                    -3.25295   0.10535  -1.43327 
 C                    -4.10779  -1.92974  -1.67446 
 H                    -5.14873  -1.60268  -1.80054 
 H                    -3.70472  -2.09324  -2.68267 
 H                    -4.09122  -2.87124  -1.12044 
 C                    -0.68018   2.26199  -2.36684 
 H                    -1.10709   1.47005  -2.98733 
 H                    -1.45298   2.65597  -1.69407 
 H                    -0.36169   3.09338  -3.00979 
 H                     0.99167   2.46152  -0.92231 
 

 GradGradGradGradGradGradGradGradGradGradGradGradGradGradGradGradGradGrad
 Berny optimization.
 Initialization pass.
                           ----------------------------
                           !    Initial Parameters    !
                           ! (Angstroms and Degrees)  !
 --------------------------                            --------------------------
 ! Name  Definition              Value          Derivative Info.                !
 --------------------------------------------------------------------------------
 ! R1    R(1,2)                  1.395          estimate D2E/DX2                !
 ! R2    R(1,6)                  1.3952         estimate D2E/DX2                !
 ! R3    R(1,7)                  1.0867         estimate D2E/DX2                !
 ! R4    R(2,3)                  1.4            estimate D2E/DX2                !
 ! R5    R(2,8)                  1.0885         estimate D2E/DX2                !
 ! R6    R(3,4)                  1.4129         estimate D2E/DX2                !
 ! R7    R(3,11)                 1.513          estimate D2E/DX2                !
 ! R8    R(4,5)                  1.4055         estimate D2E/DX2                !
 ! R9    R(4,27)                 1.4125         estimate D2E/DX2                !
 ! R10   R(5,6)                  1.3928         estimate D2E/DX2                !
 ! R11   R(5,9)                  1.0866         estimate D2E/DX2                !
 ! R12   R(6,10)                 1.0869         estimate D2E/DX2                !
 ! R13   R(11,12)                1.0934         estimate D2E/DX2                !
 ! R14   R(11,13)                1.0979         estimate D2E/DX2                !
 ! R15   R(11,14)                1.5552         estimate D2E/DX2                !
 ! R16   R(14,15)                1.0954         estimate D2E/DX2                !
 ! R17   R(14,16)                1.097          estimate D2E/DX2                !
 ! R18   R(14,17)                1.5107         estimate D2E/DX2                !
 ! R19   R(17,18)                1.3984         estimate D2E/DX2                !
 ! R20   R(17,19)                1.4138         estimate D2E/DX2                !
 ! R21   R(18,20)                1.3965         estimate D2E/DX2                !
 ! R22   R(18,21)                1.0872         estimate D2E/DX2                !
 ! R23   R(19,22)                1.4043         estimate D2E/DX2                !
 ! R24   R(19,28)                1.4114         estimate D2E/DX2                !
 ! R25   R(20,23)                1.3951         estimate D2E/DX2                !
 ! R26   R(20,24)                1.0867         estimate D2E/DX2                !
 ! R27   R(22,23)                1.3945         estimate D2E/DX2                !
 ! R28   R(22,25)                1.0868         estimate D2E/DX2                !
 ! R29   R(23,26)                1.0871         estimate D2E/DX2                !
 ! R30   R(27,29)                1.2745         estimate D2E/DX2                !
 ! R31   R(28,30)                1.2745         estimate D2E/DX2                !
 ! R32   R(29,36)                1.4977         estimate D2E/DX2                !
 ! R33   R(29,40)                1.1009         estimate D2E/DX2                !
 ! R34   R(30,31)                1.1017         estimate D2E/DX2                !
 ! R35   R(30,32)                1.4981         estimate D2E/DX2                !
 ! R36   R(32,33)                1.0984         estimate D2E/DX2                !
 ! R37   R(32,34)                1.098          estimate D2E/DX2                !
 ! R38   R(32,35)                1.0925         estimate D2E/DX2                !
 ! R39   R(36,37)                1.0929         estimate D2E/DX2                !
 ! R40   R(36,38)                1.0978         estimate D2E/DX2                !
 ! R41   R(36,39)                1.0982         estimate D2E/DX2                !
 ! A1    A(2,1,6)              119.4519         estimate D2E/DX2                !
 ! A2    A(2,1,7)              120.1072         estimate D2E/DX2                !
 ! A3    A(6,1,7)              120.4317         estimate D2E/DX2                !
 ! A4    A(1,2,3)              121.9869         estimate D2E/DX2                !
 ! A5    A(1,2,8)              119.4493         estimate D2E/DX2                !
 ! A6    A(3,2,8)              118.5607         estimate D2E/DX2                !
 ! A7    A(2,3,4)              118.1553         estimate D2E/DX2                !
 ! A8    A(2,3,11)             120.011          estimate D2E/DX2                !
 ! A9    A(4,3,11)             121.8247         estimate D2E/DX2                !
 ! A10   A(3,4,5)              119.7629         estimate D2E/DX2                !
 ! A11   A(3,4,27)             119.0271         estimate D2E/DX2                !
 ! A12   A(5,4,27)             121.1006         estimate D2E/DX2                !
 ! A13   A(4,5,6)              120.9172         estimate D2E/DX2                !
 ! A14   A(4,5,9)              118.8615         estimate D2E/DX2                !
 ! A15   A(6,5,9)              120.1881         estimate D2E/DX2                !
 ! A16   A(1,6,5)              119.7101         estimate D2E/DX2                !
 ! A17   A(1,6,10)             120.442          estimate D2E/DX2                !
 ! A18   A(5,6,10)             119.844          estimate D2E/DX2                !
 ! A19   A(3,11,12)            109.6355         estimate D2E/DX2                !
 ! A20   A(3,11,13)            108.6924         estimate D2E/DX2                !
 ! A21   A(3,11,14)            114.4168         estimate D2E/DX2                !
 ! A22   A(12,11,13)           107.419          estimate D2E/DX2                !
 ! A23   A(12,11,14)           109.1523         estimate D2E/DX2                !
 ! A24   A(13,11,14)           107.2771         estimate D2E/DX2                !
 ! A25   A(11,14,15)           107.5569         estimate D2E/DX2                !
 ! A26   A(11,14,16)           108.685          estimate D2E/DX2                !
 ! A27   A(11,14,17)           114.7864         estimate D2E/DX2                !
 ! A28   A(15,14,16)           107.6542         estimate D2E/DX2                !
 ! A29   A(15,14,17)           108.6666         estimate D2E/DX2                !
 ! A30   A(16,14,17)           109.2594         estimate D2E/DX2                !
 ! A31   A(14,17,18)           121.1989         estimate D2E/DX2                !
 ! A32   A(14,17,19)           120.5096         estimate D2E/DX2                !
 ! A33   A(18,17,19)           118.2845         estimate D2E/DX2                !
 ! A34   A(17,18,20)           121.7082         estimate D2E/DX2                !
 ! A35   A(17,18,21)           118.6596         estimate D2E/DX2                !
 ! A36   A(20,18,21)           119.6316         estimate D2E/DX2                !
 ! A37   A(17,19,22)           119.9419         estimate D2E/DX2                !
 ! A38   A(17,19,28)           118.3371         estimate D2E/DX2                !
 ! A39   A(22,19,28)           121.6083         estimate D2E/DX2                !
 ! A40   A(18,20,23)           119.6321         estimate D2E/DX2                !
 ! A41   A(18,20,24)           120.0035         estimate D2E/DX2                !
 ! A42   A(23,20,24)           120.3523         estimate D2E/DX2                !
 ! A43   A(19,22,23)           120.6631         estimate D2E/DX2                !
 ! A44   A(19,22,25)           119.0225         estimate D2E/DX2                !
 ! A45   A(23,22,25)           120.2686         estimate D2E/DX2                !
 ! A46   A(20,23,22)           119.7506         estimate D2E/DX2                !
 ! A47   A(20,23,26)           120.4175         estimate D2E/DX2                !
 ! A48   A(22,23,26)           119.8235         estimate D2E/DX2                !
 ! A49   A(4,27,29)            119.5806         estimate D2E/DX2                !
 ! A50   A(19,28,30)           120.188          estimate D2E/DX2                !
 ! A51   A(27,29,36)           122.0626         estimate D2E/DX2                !
 ! A52   A(27,29,40)           121.5236         estimate D2E/DX2                !
 ! A53   A(36,29,40)           116.4071         estimate D2E/DX2                !
 ! A54   A(28,30,31)           121.5106         estimate D2E/DX2                !
 ! A55   A(28,30,32)           121.9962         estimate D2E/DX2                !
 ! A56   A(31,30,32)           116.4921         estimate D2E/DX2                !
 ! A57   A(30,32,33)           110.5073         estimate D2E/DX2                !
 ! A58   A(30,32,34)           110.5539         estimate D2E/DX2                !
 ! A59   A(30,32,35)           110.4335         estimate D2E/DX2                !
 ! A60   A(33,32,34)           106.6683         estimate D2E/DX2                !
 ! A61   A(33,32,35)           109.2194         estimate D2E/DX2                !
 ! A62   A(34,32,35)           109.3739         estimate D2E/DX2                !
 ! A63   A(29,36,37)           110.4406         estimate D2E/DX2                !
 ! A64   A(29,36,38)           110.0485         estimate D2E/DX2                !
 ! A65   A(29,36,39)           110.6561         estimate D2E/DX2                !
 ! A66   A(37,36,38)           109.4518         estimate D2E/DX2                !
 ! A67   A(37,36,39)           109.237          estimate D2E/DX2                !
 ! A68   A(38,36,39)           106.9335         estimate D2E/DX2                !
 ! D1    D(6,1,2,3)             -0.2926         estimate D2E/DX2                !
 ! D2    D(6,1,2,8)            179.0558         estimate D2E/DX2                !
 ! D3    D(7,1,2,3)           -179.189          estimate D2E/DX2                !
 ! D4    D(7,1,2,8)              0.1595         estimate D2E/DX2                !
 ! D5    D(2,1,6,5)              0.6003         estimate D2E/DX2                !
 ! D6    D(2,1,6,10)          -178.6762         estimate D2E/DX2                !
 ! D7    D(7,1,6,5)            179.493          estimate D2E/DX2                !
 ! D8    D(7,1,6,10)             0.2165         estimate D2E/DX2                !
 ! D9    D(1,2,3,4)             -0.737          estimate D2E/DX2                !
 ! D10   D(1,2,3,11)          -179.6631         estimate D2E/DX2                !
 ! D11   D(8,2,3,4)            179.9089         estimate D2E/DX2                !
 ! D12   D(8,2,3,11)             0.9829         estimate D2E/DX2                !
 ! D13   D(2,3,4,5)              1.455          estimate D2E/DX2                !
 ! D14   D(2,3,4,27)           177.6961         estimate D2E/DX2                !
 ! D15   D(11,3,4,5)          -179.6395         estimate D2E/DX2                !
 ! D16   D(11,3,4,27)           -3.3984         estimate D2E/DX2                !
 ! D17   D(2,3,11,12)         -158.3982         estimate D2E/DX2                !
 ! D18   D(2,3,11,13)          -41.2528         estimate D2E/DX2                !
 ! D19   D(2,3,11,14)           78.6098         estimate D2E/DX2                !
 ! D20   D(4,3,11,12)           22.7162         estimate D2E/DX2                !
 ! D21   D(4,3,11,13)          139.8616         estimate D2E/DX2                !
 ! D22   D(4,3,11,14)         -100.2758         estimate D2E/DX2                !
 ! D23   D(3,4,5,6)             -1.1813         estimate D2E/DX2                !
 ! D24   D(3,4,5,9)            176.728          estimate D2E/DX2                !
 ! D25   D(27,4,5,6)          -177.3427         estimate D2E/DX2                !
 ! D26   D(27,4,5,9)             0.5666         estimate D2E/DX2                !
 ! D27   D(3,4,27,29)          136.2703         estimate D2E/DX2                !
 ! D28   D(5,4,27,29)          -47.5406         estimate D2E/DX2                !
 ! D29   D(4,5,6,1)              0.1349         estimate D2E/DX2                !
 ! D30   D(4,5,6,10)           179.4158         estimate D2E/DX2                !
 ! D31   D(9,5,6,1)           -177.7468         estimate D2E/DX2                !
 ! D32   D(9,5,6,10)             1.5341         estimate D2E/DX2                !
 ! D33   D(3,11,14,15)        -170.7137         estimate D2E/DX2                !
 ! D34   D(3,11,14,16)         -54.432          estimate D2E/DX2                !
 ! D35   D(3,11,14,17)          68.2311         estimate D2E/DX2                !
 ! D36   D(12,11,14,15)         66.0335         estimate D2E/DX2                !
 ! D37   D(12,11,14,16)       -177.6847         estimate D2E/DX2                !
 ! D38   D(12,11,14,17)        -55.0216         estimate D2E/DX2                !
 ! D39   D(13,11,14,15)        -50.0634         estimate D2E/DX2                !
 ! D40   D(13,11,14,16)         66.2183         estimate D2E/DX2                !
 ! D41   D(13,11,14,17)       -171.1186         estimate D2E/DX2                !
 ! D42   D(11,14,17,18)        -94.6221         estimate D2E/DX2                !
 ! D43   D(11,14,17,19)         84.4001         estimate D2E/DX2                !
 ! D44   D(15,14,17,18)        144.9329         estimate D2E/DX2                !
 ! D45   D(15,14,17,19)        -36.045          estimate D2E/DX2                !
 ! D46   D(16,14,17,18)         27.7311         estimate D2E/DX2                !
 ! D47   D(16,14,17,19)       -153.2468         estimate D2E/DX2                !
 ! D48   D(14,17,18,20)        179.7009         estimate D2E/DX2                !
 ! D49   D(14,17,18,21)         -0.5608         estimate D2E/DX2                !
 ! D50   D(19,17,18,20)          0.6576         estimate D2E/DX2                !
 ! D51   D(19,17,18,21)       -179.6041         estimate D2E/DX2                !
 ! D52   D(14,17,19,22)        179.391          estimate D2E/DX2                !
 ! D53   D(14,17,19,28)          3.1874         estimate D2E/DX2                !
 ! D54   D(18,17,19,22)         -1.5589         estimate D2E/DX2                !
 ! D55   D(18,17,19,28)       -177.7624         estimate D2E/DX2                !
 ! D56   D(17,18,20,23)          0.4676         estimate D2E/DX2                !
 ! D57   D(17,18,20,24)        179.2091         estimate D2E/DX2                !
 ! D58   D(21,18,20,23)       -179.2682         estimate D2E/DX2                !
 ! D59   D(21,18,20,24)         -0.5267         estimate D2E/DX2                !
 ! D60   D(17,19,22,23)          1.3653         estimate D2E/DX2                !
 ! D61   D(17,19,22,25)       -176.1826         estimate D2E/DX2                !
 ! D62   D(28,19,22,23)        177.4415         estimate D2E/DX2                !
 ! D63   D(28,19,22,25)         -0.1064         estimate D2E/DX2                !
 ! D64   D(17,19,28,30)       -137.4856         estimate D2E/DX2                !
 ! D65   D(22,19,28,30)         46.3773         estimate D2E/DX2                !
 ! D66   D(18,20,23,22)         -0.6899         estimate D2E/DX2                !
 ! D67   D(18,20,23,26)        178.2567         estimate D2E/DX2                !
 ! D68   D(24,20,23,22)       -179.4269         estimate D2E/DX2                !
 ! D69   D(24,20,23,26)         -0.4803         estimate D2E/DX2                !
 ! D70   D(19,22,23,20)         -0.2233         estimate D2E/DX2                !
 ! D71   D(19,22,23,26)       -179.1762         estimate D2E/DX2                !
 ! D72   D(25,22,23,20)        177.2941         estimate D2E/DX2                !
 ! D73   D(25,22,23,26)         -1.6588         estimate D2E/DX2                !
 ! D74   D(4,27,29,36)         177.009          estimate D2E/DX2                !
 ! D75   D(4,27,29,40)          -3.9728         estimate D2E/DX2                !
 ! D76   D(19,28,30,31)          3.5359         estimate D2E/DX2                !
 ! D77   D(19,28,30,32)       -176.859          estimate D2E/DX2                !
 ! D78   D(27,29,36,37)         -2.021          estimate D2E/DX2                !
 ! D79   D(27,29,36,38)        118.9314         estimate D2E/DX2                !
 ! D80   D(27,29,36,39)       -123.104          estimate D2E/DX2                !
 ! D81   D(40,29,36,37)        178.9133         estimate D2E/DX2                !
 ! D82   D(40,29,36,38)        -60.1343         estimate D2E/DX2                !
 ! D83   D(40,29,36,39)         57.8304         estimate D2E/DX2                !
 ! D84   D(28,30,32,33)        120.621          estimate D2E/DX2                !
 ! D85   D(28,30,32,34)       -121.5196         estimate D2E/DX2                !
 ! D86   D(28,30,32,35)         -0.3369         estimate D2E/DX2                !
 ! D87   D(31,30,32,33)        -59.7552         estimate D2E/DX2                !
 ! D88   D(31,30,32,34)         58.1042         estimate D2E/DX2                !
 ! D89   D(31,30,32,35)        179.2869         estimate D2E/DX2                !
 --------------------------------------------------------------------------------
 Trust Radius=3.00D-01 FncErr=1.00D-07 GrdErr=1.00D-06 EigMax=2.50D+02 EigMin=1.00D-04
 Number of steps in this run=    208 maximum allowed number of steps=    240.
 GradGradGradGradGradGradGradGradGradGradGradGradGradGradGradGradGradGrad

                          Input orientation:                          
 ---------------------------------------------------------------------
 Center     Atomic      Atomic             Coordinates (Angstroms)
 Number     Number       Type             X           Y           Z
 ---------------------------------------------------------------------
      1          6           0        4.250525   -0.827275    0.453262
      2          6           0        3.058285   -1.550380    0.495515
      3          6           0        1.906709   -1.121607   -0.175298
      4          6           0        1.968991    0.090270   -0.898980
      5          6           0        3.175406    0.809398   -0.953102
      6          6           0        4.308818    0.357117   -0.281853
      7          1           0        5.130006   -1.195262    0.974758
      8          1           0        3.017235   -2.482364    1.056340
      9          1           0        3.221843    1.711162   -1.557638
     10          1           0        5.235367    0.922064   -0.343379
     11          6           0        0.635026   -1.937141   -0.092801
     12          1           0       -0.012719   -1.694397   -0.939587
     13          1           0        0.893712   -3.001234   -0.171335
     14          6           0       -0.162713   -1.752102    1.229291
     15          1           0       -0.957582   -2.505667    1.243823
     16          1           0        0.505654   -1.957186    2.074690
     17          6           0       -0.786602   -0.387738    1.406890
     18          6           0       -0.131914    0.620803    2.120950
     19          6           0       -2.045037   -0.093774    0.833449
     20          6           0       -0.695991    1.887603    2.286425
     21          1           0        0.839133    0.403373    2.558947
     22          6           0       -2.619843    1.174341    1.016800
     23          6           0       -1.948885    2.161863    1.737444
     24          1           0       -0.168612    2.646885    2.857641
     25          1           0       -3.614854    1.364185    0.622962
     26          1           0       -2.412396    3.134437    1.882457
     27          7           0        0.833077    0.515401   -1.622896
     28          7           0       -2.728696   -1.124564    0.153579
     29          6           0        0.474816    1.737378   -1.570677
     30          6           0       -3.312915   -0.884492   -0.953351
     31          1           0       -3.252950    0.105348   -1.433266
     32          6           0       -4.107788   -1.929743   -1.674462
     33          1           0       -5.148726   -1.602675   -1.800541
     34          1           0       -3.704718   -2.093242   -2.682668
     35          1           0       -4.091223   -2.871244   -1.120437
     36          6           0       -0.680176    2.261986   -2.366844
     37          1           0       -1.107094    1.470050   -2.987328
     38          1           0       -1.452982    2.655966   -1.694069
     39          1           0       -0.361692    3.093382   -3.009790
     40          1           0        0.991666    2.461519   -0.922305
 ---------------------------------------------------------------------
                    Distance matrix (angstroms):
                    1          2          3          4          5
     1  C    0.000000
     2  C    1.395028   0.000000
     3  C    2.444421   1.399987   0.000000
     4  C    2.806394   2.413071   1.412884   0.000000
     5  C    2.410900   2.771419   2.437899   1.405529   0.000000
     6  C    1.395198   2.409705   2.822783   2.434511   1.392751
     7  H    1.086674   2.155878   3.423112   3.893007   3.399377
     8  H    2.150355   1.088487   2.145195   3.397137   3.859867
     9  H    3.397877   3.857440   3.415409   2.151920   1.086646
    10  H    2.159800   3.399472   3.909579   3.416107   2.151254
    11  C    3.821233   2.523467   1.512970   2.557300   3.838896
    12  H    4.568061   3.392834   2.143929   2.667182   4.053802
    13  H    4.047766   2.689803   2.135223   3.353072   4.509790
    14  C    4.575390   3.309675   2.579322   3.531010   4.739954
    15  H    5.528686   4.195203   3.483345   4.460417   5.735654
    16  H    4.234358   3.029061   2.779135   3.895657   4.893780
    17  C    5.145410   4.118919   3.208708   3.624751   4.764473
    18  C    4.907533   4.187296   3.530543   3.716886   4.519262
    19  C    6.349541   5.317875   4.205985   4.375797   5.591110
    20  C    5.932880   5.396450   4.678619   4.525410   5.161858
    21  H    4.193566   3.605487   3.307775   3.651284   4.237631
    22  C    7.178161   6.319571   5.213650   5.089481   6.131770
    23  C    7.001197   6.355697   5.413443   5.156741   5.943615
    24  H    6.113886   5.797373   5.263764   5.021736   5.392641
    25  H    8.166730   7.282974   6.107703   5.926086   6.992810
    26  H    7.882403   7.334812   6.403353   6.016635   6.683542
    27  N    4.218076   3.702252   2.434753   1.412477   2.453887
    28  N    6.991975   5.812692   4.647058   4.965075   6.310576
    29  C    4.992970   4.663991   3.488724   2.323080   2.921598
    30  C    7.693339   6.567710   5.282619   5.371373   6.705787
    31  H    7.793004   6.803919   5.450686   5.249224   6.484597
    32  C    8.695058   7.497021   6.250980   6.450509   7.814612
    33  H    9.696741   8.522302   7.256170   7.371619   8.707894
    34  H    8.644225   7.492246   6.222467   6.335633   7.665039
    35  H    8.731500   7.447916   6.318996   6.748763   8.147332
    36  C    6.465937   6.058327   4.789943   3.726803   4.355937
    37  H    6.769006   6.213178   4.869005   3.965765   4.786893
    38  H    7.019543   6.545163   5.278660   4.350271   5.037938
    39  H    6.974011   6.748921   5.562924   4.348136   4.685895
    40  H    4.829960   4.730376   3.772813   2.564865   2.738462
                    6          7          8          9         10
     6  C    0.000000
     7  H    2.159468   0.000000
     8  H    3.394348   2.475296   0.000000
     9  H    2.154665   4.301327   4.945746   0.000000
    10  H    1.086942   2.496328   4.297610   2.480197   0.000000
    11  C    4.335448   4.679200   2.700502   4.706111   5.422267
    12  H    4.828769   5.510125   3.712848   4.737321   5.894382
    13  H    4.791000   4.745656   2.507142   5.435872   5.854215
    14  C    5.169811   5.328014   3.267302   5.587163   6.226052
    15  H    6.185320   6.232839   3.979304   6.564863   7.254045
    16  H    5.037197   4.814043   2.760596   5.833375   6.042129
    17  C    5.419407   5.987076   4.356549   5.409384   6.406492
    18  C    5.055996   5.683278   4.547547   5.095937   5.913661
    19  C    6.466736   7.260474   5.601932   6.059300   7.444537
    20  C    5.829799   6.720623   5.864961   5.491573   6.559660
    21  H    4.484529   4.845295   3.915282   4.932939   5.293336
    22  C    7.096527   8.104131   6.719353   6.406341   7.976093
    23  C    6.818615   7.871637   6.833381   6.147937   7.581583
    24  H    5.928477   6.810484   6.301071   5.644949   6.513411
    25  H    8.038498   9.118503   7.679086   7.184416   8.913793
    26  H    7.587652   8.744029   7.855687   6.753119   8.266633
    27  N    3.728837   5.304505   4.575527   2.672135   4.602466
    28  N    7.204969   7.901806   5.972798   6.810178   8.237837
    29  C    4.273846   6.062212   5.583130   2.747183   4.983357
    30  C    7.751343   8.665858   6.831021   7.057311   8.758358
    31  H    7.653070   8.818397   7.225622   6.672110   8.596883
    32  C    8.832233   9.638188   7.650400   8.184945   9.858962
    33  H    9.777133  10.654605   8.695892   9.005939  10.785500
    34  H    8.716934   9.603931   7.701704   7.982257   9.720569
    35  H    9.038043   9.603636   7.444445   8.641211  10.098430
    36  C    5.732868   7.541690   6.920830   4.022931   6.394017
    37  H    6.155511   7.855153   6.998780   4.565287   6.893299
    38  H    6.362185   8.080243   7.345068   4.771295   7.040227
    39  H    6.061555   8.026695   7.683717   4.106215   6.568975
    40  H    3.980224   5.839243   5.697363   2.437288   4.551272
                   11         12         13         14         15
    11  C    0.000000
    12  H    1.093410   0.000000
    13  H    1.097898   1.766253   0.000000
    14  C    1.555170   2.174824   2.153629   0.000000
    15  H    2.155501   2.513604   2.382341   1.095394   0.000000
    16  H    2.171441   3.069794   2.507041   1.097029   1.769811
    17  C    2.582779   2.795033   3.484912   1.510718   2.131067
    18  C    3.468713   3.839433   4.407452   2.535090   3.350507
    19  C    3.382112   3.136235   4.254311   2.539663   2.677348
    20  C    4.696913   4.868751   5.698111   3.827450   4.522861
    21  H    3.542800   4.167257   4.364489   2.723555   3.663366
    22  C    4.637532   4.342143   5.584994   3.827102   4.044392
    23  C    5.179597   5.077989   6.195270   4.332176   4.797101
    24  H    5.510375   5.769746   6.496497   4.690698   5.456709
    25  H    5.428863   4.977134   6.325738   4.690006   4.735221
    26  H    6.237734   6.086051   7.266008   5.419037   5.859617
    27  N    2.897478   2.462821   3.804922   3.777319   4.533364
    28  N    3.469238   2.982659   4.092591   2.852232   2.496582
    29  C    3.963821   3.523215   4.958636   4.519152   5.289292
    30  C    4.175506   3.398151   4.773663   3.929433   3.606019
    31  H    4.591837   3.739238   5.332741   4.482064   4.387815
    32  C    4.999599   4.167136   5.331274   4.901730   4.332652
    33  H    6.039870   5.208476   6.412592   5.836312   5.258254
    34  H    5.056200   4.102227   5.317594   5.288251   4.809801
    35  H    4.926055   4.248749   5.076147   4.712419   3.942471
    36  C    4.953150   4.258583   5.915984   5.414135   5.987018
    37  H    4.798147   3.924873   5.650259   5.390176   5.807867
    38  H    5.293436   4.644272   6.311070   5.444437   5.959789
    39  H    5.899867   5.227844   6.839387   6.441127   7.056746
    40  H    4.490376   4.275597   5.515000   4.869965   5.758873
                   16         17         18         19         20
    16  H    0.000000
    17  C    2.139871   0.000000
    18  C    2.656061   1.398447   0.000000
    19  C    3.393966   1.413827   2.414191   0.000000
    20  C    4.033756   2.441100   1.396548   2.803020   0.000000
    21  H    2.432684   2.143853   1.087221   3.397490   2.152629
    22  C    4.549101   2.439884   2.777650   1.404327   2.412861
    23  C    4.806772   2.821459   2.413157   2.431944   1.395114
    24  H    4.718593   3.419872   2.156170   3.889670   1.086704
    25  H    5.487951   3.418009   3.863607   2.152737   3.400123
    26  H    5.871677   3.908336   3.402328   3.414193   2.159591
    27  N    4.460161   3.552270   3.867648   3.832527   4.416308
    28  N    3.852914   2.425991   3.695961   1.411432   4.213558
    29  C    5.190323   3.869522   3.904225   3.934793   4.033682
    30  C    4.990108   3.492815   4.672901   2.329250   5.002894
    31  H    5.539576   3.793744   4.758047   2.576179   4.852893
    32  C    5.944808   4.785686   6.059539   3.730327   6.473107
    33  H    6.864044   5.549037   6.744653   4.341379   6.979411
    34  H    6.354384   5.305528   6.573105   4.372127   7.042120
    35  H    5.672355   4.845173   6.194926   3.964705   6.766161
    36  C    6.239778   4.612313   4.809820   4.201705   4.668332
    37  H    6.322257   4.781552   5.269412   4.233630   5.306206
    38  H    6.270644   4.395923   4.521225   3.781527   4.124045
    39  H    7.218896   5.639664   5.700082   5.268975   5.442017
    40  H    5.361263   4.087255   3.729889   4.339788   3.670629
                   21         22         23         24         25
    21  H    0.000000
    22  C    3.864858   0.000000
    23  C    3.397087   1.394529   0.000000
    24  H    2.477522   3.400826   2.158578   0.000000
    25  H    4.950677   1.086828   2.157270   4.302987   0.000000
    26  H    4.299859   2.152759   1.087093   2.494646   2.483148
    27  N    4.183348   4.396004   4.662835   5.061800   5.054543
    28  N    4.566157   2.458041   3.730595   5.299982   2.683182
    29  C    4.355008   4.072955   4.122885   4.566312   4.655827
    30  C    5.588769   2.932684   4.287334   6.072967   2.762694
    31  H    5.724660   2.747070   3.997905   5.863824   2.437974
    32  C    6.916445   4.369463   5.748322   7.550006   4.046122
    33  H    7.673579   4.695155   6.076847   8.034859   4.126547
    34  H    7.372530   5.053723   6.381713   8.103572   4.784252
    35  H    6.969175   4.806194   6.171650   7.852498   4.604913
    36  C    5.479613   4.048991   4.297072   5.263562   4.284544
    37  H    5.973840   4.290559   4.848782   6.035673   4.397074
    38  H    5.330676   3.302361   3.502191   4.729456   3.422137
    39  H    6.299918   4.999539   5.091477   5.887562   5.173980
    40  H    4.047017   4.296505   3.976292   3.958358   4.981166
                   26         27         28         29         30
    26  H    0.000000
    27  N    5.447930   0.000000
    28  N    4.607402   4.304832   0.000000
    29  C    4.712950   1.274482   4.628851   0.000000
    30  C    5.000453   4.426877   1.274457   4.647817   0.000000
    31  H    4.569019   4.110927   2.074995   4.071688   1.101679
    32  C    6.416537   5.513033   2.427332   5.870162   1.498123
    33  H    6.594862   6.348210   3.147018   6.544694   2.145628
    34  H    7.059681   5.340386   3.152024   5.777428   2.145955
    35  H    6.921274   5.997546   2.555482   6.503140   2.140295
    36  C    4.671008   2.427746   4.692301   1.497699   4.339309
    37  H    5.309313   2.556813   4.384850   2.140281   3.813997
    38  H    3.733758   3.132595   4.397005   2.139027   4.067291
    39  H    5.304824   3.161793   5.779332   2.146984   5.363035
    40  H    4.461743   2.074453   5.278126   1.100863   5.452171
                   31         32         33         34         35
    31  H    0.000000
    32  C    2.220477   0.000000
    33  H    2.578023   1.098372   0.000000
    34  H    2.568832   1.098033   1.761807   0.000000
    35  H    3.108161   1.092539   1.786091   1.787523   0.000000
    36  C    3.484512   5.458801   5.935002   5.311837   6.287990
    37  H    2.980305   4.720845   5.213913   4.420126   5.589020
    38  H    3.132659   5.298783   5.639670   5.348142   6.151375
    39  H    4.446701   6.406881   6.814024   6.179312   7.283943
    40  H    4.881535   6.771510   7.415753   6.775009   7.369761
                   36         37         38         39         40
    36  C    0.000000
    37  H    1.092896   0.000000
    38  H    1.097759   1.788450   0.000000
    39  H    1.098194   1.786431   1.764474   0.000000
    40  H    2.218459   3.106787   2.570940   2.566792   0.000000
 Stoichiometry    C18H20N2
 Framework group  C1[X(C18H20N2)]
 Deg. of freedom   114
 Full point group                 C1      NOp   1
 Largest Abelian subgroup         C1      NOp   1
 Largest concise Abelian subgroup C1      NOp   1
                         Standard orientation:                         
 ---------------------------------------------------------------------
 Center     Atomic      Atomic             Coordinates (Angstroms)
 Number     Number       Type             X           Y           Z
 ---------------------------------------------------------------------
      1          6           0       -4.250525   -0.827275   -0.453262
      2          6           0       -3.058285   -1.550380   -0.495515
      3          6           0       -1.906709   -1.121607    0.175298
      4          6           0       -1.968991    0.090270    0.898980
      5          6           0       -3.175406    0.809398    0.953102
      6          6           0       -4.308818    0.357117    0.281853
      7          1           0       -5.130006   -1.195262   -0.974758
      8          1           0       -3.017235   -2.482364   -1.056340
      9          1           0       -3.221843    1.711162    1.557638
     10          1           0       -5.235367    0.922064    0.343379
     11          6           0       -0.635026   -1.937141    0.092801
     12          1           0        0.012719   -1.694397    0.939587
     13          1           0       -0.893712   -3.001234    0.171335
     14          6           0        0.162713   -1.752102   -1.229291
     15          1           0        0.957582   -2.505667   -1.243823
     16          1           0       -0.505654   -1.957186   -2.074690
     17          6           0        0.786602   -0.387738   -1.406890
     18          6           0        0.131914    0.620803   -2.120950
     19          6           0        2.045037   -0.093774   -0.833449
     20          6           0        0.695991    1.887603   -2.286425
     21          1           0       -0.839133    0.403373   -2.558947
     22          6           0        2.619843    1.174341   -1.016800
     23          6           0        1.948885    2.161863   -1.737444
     24          1           0        0.168612    2.646885   -2.857641
     25          1           0        3.614854    1.364185   -0.622962
     26          1           0        2.412396    3.134437   -1.882457
     27          7           0       -0.833077    0.515401    1.622896
     28          7           0        2.728696   -1.124564   -0.153579
     29          6           0       -0.474816    1.737378    1.570677
     30          6           0        3.312915   -0.884492    0.953351
     31          1           0        3.252950    0.105348    1.433266
     32          6           0        4.107788   -1.929743    1.674462
     33          1           0        5.148726   -1.602675    1.800541
     34          1           0        3.704718   -2.093242    2.682668
     35          1           0        4.091223   -2.871244    1.120437
     36          6           0        0.680176    2.261986    2.366844
     37          1           0        1.107094    1.470050    2.987328
     38          1           0        1.452982    2.655966    1.694069
     39          1           0        0.361692    3.093382    3.009790
     40          1           0       -0.991666    2.461519    0.922305
 ---------------------------------------------------------------------
 Rotational constants (GHZ):           0.4963754           0.2440253           0.2387168
 Standard basis: 6-31G(d) (6D, 7F)
 There are   340 symmetry adapted cartesian basis functions of A   symmetry.
 There are   340 symmetry adapted basis functions of A   symmetry.
   340 basis functions,   640 primitive gaussians,   340 cartesian basis functions
    71 alpha electrons       71 beta electrons
       nuclear repulsion energy      1494.4968332915 Hartrees.
 NAtoms=   40 NActive=   40 NUniq=   40 SFac= 1.00D+00 NAtFMM=   60 NAOKFM=F Big=F
 Integral buffers will be    131072 words long.
 Raffenetti 2 integral format.
 Two-electron integral symmetry is turned on.
 One-electron integrals computed using PRISM.
 NBasis=   340 RedAO= T EigKep=  3.92D-04  NBF=   340
 NBsUse=   340 1.00D-06 EigRej= -1.00D+00 NBFU=   340
 Initial guess from the checkpoint file:  "/home/rtong2/g16/093021/benzbenzNCHCH3-2.chk"
 B after Tr=     0.000000   -0.000000    0.000000
         Rot=   -0.000000    0.000000    1.000000    0.000000 Ang= 180.00 deg.
 Requested convergence on RMS density matrix=1.00D-08 within 128 cycles.
 Requested convergence on MAX density matrix=1.00D-06.
 Requested convergence on             energy=1.00D-06.
 No special actions if energy rises.
 SCF Done:  E(RB3LYP) =  -807.450659706     A.U. after    2 cycles
            NFock=  2  Conv=0.63D-08     -V/T= 2.0099

 **********************************************************************

            Population analysis using the SCF Density.

 **********************************************************************

 Orbital symmetries:
       Occupied  (A) (A) (A) (A) (A) (A) (A) (A) (A) (A) (A) (A)
                 (A) (A) (A) (A) (A) (A) (A) (A) (A) (A) (A) (A)
                 (A) (A) (A) (A) (A) (A) (A) (A) (A) (A) (A) (A)
                 (A) (A) (A) (A) (A) (A) (A) (A) (A) (A) (A) (A)
                 (A) (A) (A) (A) (A) (A) (A) (A) (A) (A) (A) (A)
                 (A) (A) (A) (A) (A) (A) (A) (A) (A) (A) (A)
       Virtual   (A) (A) (A) (A) (A) (A) (A) (A) (A) (A) (A) (A)
                 (A) (A) (A) (A) (A) (A) (A) (A) (A) (A) (A) (A)
                 (A) (A) (A) (A) (A) (A) (A) (A) (A) (A) (A) (A)
                 (A) (A) (A) (A) (A) (A) (A) (A) (A) (A) (A) (A)
                 (A) (A) (A) (A) (A) (A) (A) (A) (A) (A) (A) (A)
                 (A) (A) (A) (A) (A) (A) (A) (A) (A) (A) (A) (A)
                 (A) (A) (A) (A) (A) (A) (A) (A) (A) (A) (A) (A)
                 (A) (A) (A) (A) (A) (A) (A) (A) (A) (A) (A) (A)
                 (A) (A) (A) (A) (A) (A) (A) (A) (A) (A) (A) (A)
                 (A) (A) (A) (A) (A) (A) (A) (A) (A) (A) (A) (A)
                 (A) (A) (A) (A) (A) (A) (A) (A) (A) (A) (A) (A)
                 (A) (A) (A) (A) (A) (A) (A) (A) (A) (A) (A) (A)
                 (A) (A) (A) (A) (A) (A) (A) (A) (A) (A) (A) (A)
                 (A) (A) (A) (A) (A) (A) (A) (A) (A) (A) (A) (A)
                 (A) (A) (A) (A) (A) (A) (A) (A) (A) (A) (A) (A)
                 (A) (A) (A) (A) (A) (A) (A) (A) (A) (A) (A) (A)
                 (A) (A) (A) (A) (A) (A) (A) (A) (A) (A) (A) (A)
                 (A) (A) (A) (A) (A) (A) (A) (A) (A) (A) (A) (A)
                 (A) (A) (A) (A) (A) (A) (A) (A) (A) (A) (A) (A)
                 (A) (A) (A) (A) (A) (A) (A) (A) (A) (A) (A) (A)
                 (A) (A) (A) (A) (A) (A) (A) (A) (A) (A) (A) (A)
                 (A) (A) (A) (A) (A) (A) (A) (A) (A) (A) (A) (A)
                 (A) (A) (A) (A) (A)
 The electronic state is 1-A.
 Alpha  occ. eigenvalues --  -14.33116 -14.32700 -10.23632 -10.23204 -10.21319
 Alpha  occ. eigenvalues --  -10.21102 -10.18856 -10.18597 -10.18595 -10.18546
 Alpha  occ. eigenvalues --  -10.18476 -10.18456 -10.18241 -10.18218 -10.18135
 Alpha  occ. eigenvalues --  -10.18038 -10.18012 -10.17966 -10.17663 -10.17531
 Alpha  occ. eigenvalues --   -0.93163  -0.92775  -0.84361  -0.83836  -0.78558
 Alpha  occ. eigenvalues --   -0.75908  -0.75461  -0.74534  -0.71675  -0.71057
 Alpha  occ. eigenvalues --   -0.69449  -0.63160  -0.61695  -0.61388  -0.58319
 Alpha  occ. eigenvalues --   -0.56482  -0.55182  -0.54959  -0.51639  -0.51175
 Alpha  occ. eigenvalues --   -0.47535  -0.47280  -0.46128  -0.45870  -0.43537
 Alpha  occ. eigenvalues --   -0.43033  -0.42900  -0.42505  -0.41738  -0.41403
 Alpha  occ. eigenvalues --   -0.40959  -0.40564  -0.39642  -0.39100  -0.38818
 Alpha  occ. eigenvalues --   -0.37631  -0.36460  -0.35757  -0.35144  -0.34522
 Alpha  occ. eigenvalues --   -0.33442  -0.33021  -0.32550  -0.30918  -0.30682
 Alpha  occ. eigenvalues --   -0.26642  -0.26362  -0.24064  -0.23508  -0.21847
 Alpha  occ. eigenvalues --   -0.21260
 Alpha virt. eigenvalues --   -0.02495  -0.01864   0.00254   0.00905   0.03462
 Alpha virt. eigenvalues --    0.03747   0.09743   0.10355   0.10540   0.11906
 Alpha virt. eigenvalues --    0.12402   0.13439   0.14114   0.15206   0.15528
 Alpha virt. eigenvalues --    0.16030   0.16400   0.16606   0.16869   0.17026
 Alpha virt. eigenvalues --    0.17640   0.17856   0.18078   0.18785   0.18944
 Alpha virt. eigenvalues --    0.19720   0.20154   0.20548   0.23905   0.24204
 Alpha virt. eigenvalues --    0.25052   0.25851   0.27097   0.28106   0.28891
 Alpha virt. eigenvalues --    0.30834   0.31080   0.33214   0.33326   0.35580
 Alpha virt. eigenvalues --    0.35936   0.36314   0.36478   0.40690   0.41331
 Alpha virt. eigenvalues --    0.46088   0.49146   0.50395   0.51178   0.51291
 Alpha virt. eigenvalues --    0.52437   0.53267   0.54129   0.54604   0.54918
 Alpha virt. eigenvalues --    0.55511   0.55661   0.55912   0.56746   0.57129
 Alpha virt. eigenvalues --    0.58625   0.59209   0.59991   0.60495   0.60824
 Alpha virt. eigenvalues --    0.61351   0.61591   0.61753   0.62005   0.62464
 Alpha virt. eigenvalues --    0.62759   0.63706   0.64500   0.65266   0.65520
 Alpha virt. eigenvalues --    0.65925   0.67182   0.67941   0.68874   0.69341
 Alpha virt. eigenvalues --    0.70000   0.72175   0.72867   0.74474   0.75740
 Alpha virt. eigenvalues --    0.77243   0.77530   0.78514   0.78881   0.81465
 Alpha virt. eigenvalues --    0.82453   0.83311   0.83789   0.84126   0.84543
 Alpha virt. eigenvalues --    0.84671   0.85171   0.85684   0.85927   0.86730
 Alpha virt. eigenvalues --    0.87481   0.87907   0.89302   0.89383   0.90304
 Alpha virt. eigenvalues --    0.90717   0.91144   0.91796   0.92291   0.92814
 Alpha virt. eigenvalues --    0.93173   0.94779   0.95750   0.96304   0.97028
 Alpha virt. eigenvalues --    0.98561   0.98978   1.00798   1.00982   1.02030
 Alpha virt. eigenvalues --    1.03154   1.04972   1.05495   1.07147   1.07942
 Alpha virt. eigenvalues --    1.09742   1.10565   1.12256   1.13900   1.15440
 Alpha virt. eigenvalues --    1.16130   1.20552   1.21543   1.23150   1.23798
 Alpha virt. eigenvalues --    1.25460   1.25910   1.27245   1.31388   1.32339
 Alpha virt. eigenvalues --    1.33437   1.38421   1.39809   1.41465   1.42298
 Alpha virt. eigenvalues --    1.43069   1.45030   1.45230   1.47102   1.48065
 Alpha virt. eigenvalues --    1.50055   1.50321   1.50882   1.51507   1.52286
 Alpha virt. eigenvalues --    1.52854   1.55235   1.56442   1.61073   1.62896
 Alpha virt. eigenvalues --    1.63884   1.65471   1.70014   1.76561   1.78124
 Alpha virt. eigenvalues --    1.79470   1.80032   1.80508   1.81868   1.82529
 Alpha virt. eigenvalues --    1.84325   1.86070   1.87092   1.87843   1.89421
 Alpha virt. eigenvalues --    1.90752   1.91483   1.91702   1.92920   1.94780
 Alpha virt. eigenvalues --    1.95780   1.96630   1.97478   1.99146   2.00688
 Alpha virt. eigenvalues --    2.01644   2.01982   2.04640   2.05935   2.06477
 Alpha virt. eigenvalues --    2.09365   2.10421   2.13646   2.13792   2.14578
 Alpha virt. eigenvalues --    2.14896   2.17085   2.17767   2.22779   2.22926
 Alpha virt. eigenvalues --    2.23674   2.24358   2.25160   2.25517   2.27259
 Alpha virt. eigenvalues --    2.28402   2.29200   2.30253   2.30718   2.32201
 Alpha virt. eigenvalues --    2.33756   2.34702   2.36347   2.38817   2.39582
 Alpha virt. eigenvalues --    2.40953   2.44509   2.45436   2.47598   2.48408
 Alpha virt. eigenvalues --    2.50259   2.50735   2.57646   2.58913   2.62608
 Alpha virt. eigenvalues --    2.64053   2.64335   2.65190   2.66978   2.69429
 Alpha virt. eigenvalues --    2.70410   2.73174   2.74732   2.75855   2.76688
 Alpha virt. eigenvalues --    2.77743   2.78467   2.79172   2.80746   2.86043
 Alpha virt. eigenvalues --    2.88538   2.94505   2.94939   3.05145   3.07467
 Alpha virt. eigenvalues --    3.20353   3.20978   3.42702   3.42844   4.04155
 Alpha virt. eigenvalues --    4.07550   4.09389   4.09568   4.11663   4.12254
 Alpha virt. eigenvalues --    4.12957   4.15191   4.15996   4.20359   4.27470
 Alpha virt. eigenvalues --    4.33628   4.34498   4.38691   4.40989   4.42750
 Alpha virt. eigenvalues --    4.44856   4.57814   4.74873   4.75740
          Condensed to atoms (all electrons):
               1          2          3          4          5          6
     1  C    4.882660   0.512622  -0.021377  -0.045028  -0.027373   0.541773
     2  C    0.512622   5.009986   0.518456  -0.004060  -0.059722  -0.024101
     3  C   -0.021377   0.518456   4.780530   0.502264  -0.042548  -0.035931
     4  C   -0.045028  -0.004060   0.502264   4.717200   0.469941  -0.005807
     5  C   -0.027373  -0.059722  -0.042548   0.469941   5.069151   0.500685
     6  C    0.541773  -0.024101  -0.035931  -0.005807   0.500685   4.888727
     7  H    0.356683  -0.039300   0.003421   0.000953   0.004496  -0.042768
     8  H   -0.046310   0.354137  -0.044074   0.005106   0.000471   0.004916
     9  H    0.004628   0.000563   0.005134  -0.041547   0.348076  -0.043320
    10  H   -0.041783   0.004360   0.001035   0.003116  -0.037462   0.353831
    11  C    0.007226  -0.073964   0.355358  -0.053766   0.010020  -0.000419
    12  H   -0.000181   0.004346  -0.030847  -0.009909   0.000448  -0.000015
    13  H    0.000110  -0.006431  -0.034646   0.003804  -0.000154   0.000010
    14  C   -0.000046  -0.003869  -0.036370  -0.002325  -0.000210   0.000031
    15  H    0.000003   0.000064   0.004772  -0.000040   0.000003  -0.000000
    16  H   -0.000135   0.003467  -0.006927   0.000036   0.000000  -0.000004
    17  C    0.000012  -0.001009  -0.006927   0.002481   0.000069   0.000001
    18  C   -0.000055   0.000022   0.004228   0.002253   0.000024  -0.000038
    19  C    0.000000  -0.000029  -0.000832   0.000187   0.000010   0.000000
    20  C    0.000001   0.000009  -0.000087   0.000018  -0.000016  -0.000003
    21  H    0.000160   0.001225   0.001205  -0.000030  -0.000072   0.000008
    22  C   -0.000000  -0.000000  -0.000006  -0.000033   0.000001   0.000000
    23  C    0.000000   0.000001   0.000012  -0.000031  -0.000002   0.000000
    24  H   -0.000000  -0.000001  -0.000002  -0.000003   0.000002   0.000000
    25  H   -0.000000   0.000000   0.000000  -0.000000   0.000000   0.000000
    26  H    0.000000   0.000000   0.000000   0.000000  -0.000000   0.000000
    27  N   -0.000068   0.006429  -0.070227   0.301638  -0.081115   0.006483
    28  N   -0.000000  -0.000001   0.000144  -0.000009  -0.000000   0.000000
    29  C    0.000022  -0.000181   0.002329  -0.047085  -0.014389   0.000423
    30  C   -0.000000  -0.000000   0.000011  -0.000003  -0.000000  -0.000000
    31  H   -0.000000   0.000000   0.000006  -0.000005  -0.000000   0.000000
    32  C    0.000000  -0.000000   0.000000  -0.000000   0.000000   0.000000
    33  H   -0.000000  -0.000000   0.000000  -0.000000  -0.000000   0.000000
    34  H   -0.000000   0.000000  -0.000000   0.000000   0.000000  -0.000000
    35  H   -0.000000   0.000000   0.000000  -0.000000  -0.000000   0.000000
    36  C   -0.000000   0.000006  -0.000293   0.004498   0.000199   0.000009
    37  H    0.000000  -0.000000  -0.000019   0.000374   0.000020  -0.000000
    38  H   -0.000000  -0.000000   0.000027  -0.000221   0.000007   0.000000
    39  H    0.000000  -0.000000  -0.000003  -0.000076   0.000004  -0.000001
    40  H   -0.000011  -0.000070   0.000835  -0.008065   0.011757  -0.000670
               7          8          9         10         11         12
     1  C    0.356683  -0.046310   0.004628  -0.041783   0.007226  -0.000181
     2  C   -0.039300   0.354137   0.000563   0.004360  -0.073964   0.004346
     3  C    0.003421  -0.044074   0.005134   0.001035   0.355358  -0.030847
     4  C    0.000953   0.005106  -0.041547   0.003116  -0.053766  -0.009909
     5  C    0.004496   0.000471   0.348076  -0.037462   0.010020   0.000448
     6  C   -0.042768   0.004916  -0.043320   0.353831  -0.000419  -0.000015
     7  H    0.603320  -0.005449  -0.000190  -0.005191  -0.000175   0.000003
     8  H   -0.005449   0.612340   0.000019  -0.000204  -0.009431   0.000069
     9  H   -0.000190   0.000019   0.607462  -0.005513  -0.000149   0.000000
    10  H   -0.005191  -0.000204  -0.005513   0.602118   0.000010   0.000000
    11  C   -0.000175  -0.009431  -0.000149   0.000010   5.203299   0.358610
    12  H    0.000003   0.000069   0.000000   0.000000   0.358610   0.553830
    13  H   -0.000007   0.004487   0.000004  -0.000000   0.350857  -0.030059
    14  C    0.000001   0.000538   0.000000   0.000000   0.332466  -0.035927
    15  H   -0.000000  -0.000098  -0.000000   0.000000  -0.032987  -0.001965
    16  H    0.000005   0.001619   0.000000  -0.000000  -0.040158   0.005174
    17  C   -0.000000   0.000144   0.000001   0.000000  -0.033694  -0.008182
    18  C    0.000000  -0.000017  -0.000001  -0.000000  -0.003597   0.000030
    19  C   -0.000000   0.000001   0.000000   0.000000  -0.004158   0.002098
    20  C    0.000000  -0.000000  -0.000000  -0.000000  -0.000090   0.000021
    21  H    0.000000   0.000029   0.000001  -0.000000  -0.000023   0.000024
    22  C   -0.000000  -0.000000  -0.000000   0.000000  -0.000209   0.000031
    23  C    0.000000   0.000000   0.000000  -0.000000   0.000027  -0.000018
    24  H   -0.000000  -0.000000  -0.000000   0.000000   0.000001   0.000000
    25  H    0.000000   0.000000  -0.000000   0.000000  -0.000000   0.000005
    26  H    0.000000   0.000000   0.000000  -0.000000  -0.000000   0.000000
    27  N    0.000004  -0.000093  -0.008857  -0.000117  -0.018136   0.016909
    28  N   -0.000000   0.000000  -0.000000  -0.000000  -0.000759   0.002885
    29  C   -0.000000   0.000001   0.005104  -0.000015   0.001042  -0.000420
    30  C   -0.000000   0.000000  -0.000000   0.000000  -0.000018   0.001355
    31  H   -0.000000   0.000000   0.000000   0.000000  -0.000104   0.000236
    32  C   -0.000000  -0.000000  -0.000000   0.000000   0.000015  -0.000113
    33  H    0.000000   0.000000  -0.000000  -0.000000   0.000000   0.000002
    34  H    0.000000  -0.000000   0.000000   0.000000   0.000003   0.000001
    35  H   -0.000000   0.000000   0.000000   0.000000  -0.000006   0.000026
    36  C    0.000000  -0.000000  -0.000475  -0.000000   0.000008  -0.000152
    37  H    0.000000  -0.000000   0.000013   0.000000  -0.000025   0.000178
    38  H   -0.000000   0.000000   0.000012  -0.000000  -0.000004   0.000006
    39  H   -0.000000  -0.000000   0.000024   0.000000   0.000000   0.000001
    40  H   -0.000000   0.000000   0.004984   0.000026   0.000071   0.000144
              13         14         15         16         17         18
     1  C    0.000110  -0.000046   0.000003  -0.000135   0.000012  -0.000055
     2  C   -0.006431  -0.003869   0.000064   0.003467  -0.001009   0.000022
     3  C   -0.034646  -0.036370   0.004772  -0.006927  -0.006927   0.004228
     4  C    0.003804  -0.002325  -0.000040   0.000036   0.002481   0.002253
     5  C   -0.000154  -0.000210   0.000003   0.000000   0.000069   0.000024
     6  C    0.000010   0.000031  -0.000000  -0.000004   0.000001  -0.000038
     7  H   -0.000007   0.000001  -0.000000   0.000005  -0.000000   0.000000
     8  H    0.004487   0.000538  -0.000098   0.001619   0.000144  -0.000017
     9  H    0.000004   0.000000  -0.000000   0.000000   0.000001  -0.000001
    10  H   -0.000000   0.000000   0.000000  -0.000000   0.000000  -0.000000
    11  C    0.350857   0.332466  -0.032987  -0.040158  -0.033694  -0.003597
    12  H   -0.030059  -0.035927  -0.001965   0.005174  -0.008182   0.000030
    13  H    0.609499  -0.034593  -0.003569  -0.002582   0.005000  -0.000018
    14  C   -0.034593   5.194774   0.349502   0.357346   0.359472  -0.072119
    15  H   -0.003569   0.349502   0.570579  -0.031306  -0.028542   0.004116
    16  H   -0.002582   0.357346  -0.031306   0.607742  -0.036062  -0.005444
    17  C    0.005000   0.359472  -0.028542  -0.036062   4.769736   0.524425
    18  C   -0.000018  -0.072119   0.004116  -0.005444   0.524425   5.006010
    19  C    0.000093  -0.055381  -0.011465   0.004311   0.502891  -0.005265
    20  C    0.000003   0.007609  -0.000192   0.000188  -0.022056   0.503417
    21  H   -0.000021  -0.010145   0.000101   0.005727  -0.040606   0.355064
    22  C    0.000004   0.010370   0.000342  -0.000146  -0.046413  -0.061145
    23  C   -0.000000  -0.000441  -0.000002   0.000003  -0.035527  -0.023629
    24  H   -0.000000  -0.000169   0.000003  -0.000009   0.003463  -0.038251
    25  H   -0.000000  -0.000152  -0.000000   0.000003   0.005038   0.000536
    26  H    0.000000   0.000010   0.000000  -0.000000   0.000992   0.004315
    27  N    0.000514  -0.000481  -0.000012  -0.000020  -0.000177  -0.000995
    28  N    0.000030  -0.018856   0.016528   0.000533  -0.071509   0.006579
    29  C   -0.000009  -0.000061  -0.000001   0.000002   0.000915   0.000101
    30  C   -0.000009   0.000650  -0.000361  -0.000013   0.003032  -0.000145
    31  H    0.000001   0.000137   0.000108   0.000003   0.000440  -0.000073
    32  C   -0.000001  -0.000019  -0.000125  -0.000001  -0.000233   0.000006
    33  H   -0.000000   0.000001  -0.000000   0.000000  -0.000004  -0.000000
    34  H    0.000000  -0.000003   0.000006   0.000000   0.000022  -0.000000
    35  H    0.000001  -0.000015   0.000167   0.000000  -0.000031  -0.000000
    36  C   -0.000001   0.000003  -0.000000   0.000000   0.000043   0.000001
    37  H    0.000000   0.000000   0.000000  -0.000000  -0.000019  -0.000000
    38  H    0.000000   0.000000   0.000000   0.000000  -0.000076  -0.000059
    39  H   -0.000000   0.000000  -0.000000  -0.000000   0.000000  -0.000002
    40  H    0.000002  -0.000026   0.000000  -0.000002  -0.000034   0.000409
              19         20         21         22         23         24
     1  C    0.000000   0.000001   0.000160  -0.000000   0.000000  -0.000000
     2  C   -0.000029   0.000009   0.001225  -0.000000   0.000001  -0.000001
     3  C   -0.000832  -0.000087   0.001205  -0.000006   0.000012  -0.000002
     4  C    0.000187   0.000018  -0.000030  -0.000033  -0.000031  -0.000003
     5  C    0.000010  -0.000016  -0.000072   0.000001  -0.000002   0.000002
     6  C    0.000000  -0.000003   0.000008   0.000000   0.000000   0.000000
     7  H   -0.000000   0.000000   0.000000  -0.000000   0.000000  -0.000000
     8  H    0.000001  -0.000000   0.000029  -0.000000   0.000000  -0.000000
     9  H    0.000000  -0.000000   0.000001  -0.000000   0.000000  -0.000000
    10  H    0.000000  -0.000000  -0.000000   0.000000  -0.000000   0.000000
    11  C   -0.004158  -0.000090  -0.000023  -0.000209   0.000027   0.000001
    12  H    0.002098   0.000021   0.000024   0.000031  -0.000018   0.000000
    13  H    0.000093   0.000003  -0.000021   0.000004  -0.000000  -0.000000
    14  C   -0.055381   0.007609  -0.010145   0.010370  -0.000441  -0.000169
    15  H   -0.011465  -0.000192   0.000101   0.000342  -0.000002   0.000003
    16  H    0.004311   0.000188   0.005727  -0.000146   0.000003  -0.000009
    17  C    0.502891  -0.022056  -0.040606  -0.046413  -0.035527   0.003463
    18  C   -0.005265   0.503417   0.355064  -0.061145  -0.023629  -0.038251
    19  C    4.715646  -0.045383   0.005022   0.473767  -0.006738   0.000929
    20  C   -0.045383   4.894854  -0.045980  -0.027081   0.541527   0.356576
    21  H    0.005022  -0.045980   0.596213   0.000449   0.004858  -0.005363
    22  C    0.473767  -0.027081   0.000449   5.078043   0.497148   0.004545
    23  C   -0.006738   0.541527   0.004858   0.497148   4.895528  -0.043410
    24  H    0.000929   0.356576  -0.005363   0.004545  -0.043410   0.601787
    25  H   -0.041177   0.004581   0.000018   0.347665  -0.043267  -0.000187
    26  H    0.003136  -0.041588  -0.000195  -0.038213   0.354206  -0.005226
    27  N    0.000902  -0.000126  -0.000020   0.000083  -0.000010  -0.000001
    28  N    0.300722  -0.000100  -0.000093  -0.081506   0.006371   0.000004
    29  C    0.000132   0.000410  -0.000004   0.000271   0.000420  -0.000006
    30  C   -0.047408   0.000017   0.000001  -0.014562   0.000387  -0.000000
    31  H   -0.008715  -0.000006   0.000000   0.011926  -0.000654  -0.000000
    32  C    0.004620  -0.000000  -0.000000   0.000162   0.000008   0.000000
    33  H   -0.000066   0.000000  -0.000000   0.000005  -0.000001  -0.000000
    34  H   -0.000193  -0.000000   0.000000   0.000008   0.000000  -0.000000
    35  H    0.000358   0.000000  -0.000000   0.000023  -0.000000   0.000000
    36  C    0.000058  -0.000096  -0.000001  -0.000851  -0.000749   0.000000
    37  H   -0.000008   0.000003  -0.000000  -0.000011  -0.000008   0.000000
    38  H    0.000147   0.000040  -0.000000   0.003279   0.001806  -0.000001
    39  H    0.000007  -0.000002  -0.000000   0.000028   0.000010  -0.000000
    40  H   -0.000032   0.000903   0.000007  -0.000112   0.000138   0.000029
              25         26         27         28         29         30
     1  C   -0.000000   0.000000  -0.000068  -0.000000   0.000022  -0.000000
     2  C    0.000000   0.000000   0.006429  -0.000001  -0.000181  -0.000000
     3  C    0.000000   0.000000  -0.070227   0.000144   0.002329   0.000011
     4  C   -0.000000   0.000000   0.301638  -0.000009  -0.047085  -0.000003
     5  C    0.000000  -0.000000  -0.081115  -0.000000  -0.014389  -0.000000
     6  C    0.000000   0.000000   0.006483   0.000000   0.000423  -0.000000
     7  H    0.000000   0.000000   0.000004  -0.000000  -0.000000  -0.000000
     8  H    0.000000   0.000000  -0.000093   0.000000   0.000001   0.000000
     9  H   -0.000000   0.000000  -0.008857  -0.000000   0.005104  -0.000000
    10  H    0.000000  -0.000000  -0.000117  -0.000000  -0.000015   0.000000
    11  C   -0.000000  -0.000000  -0.018136  -0.000759   0.001042  -0.000018
    12  H    0.000005   0.000000   0.016909   0.002885  -0.000420   0.001355
    13  H   -0.000000   0.000000   0.000514   0.000030  -0.000009  -0.000009
    14  C   -0.000152   0.000010  -0.000481  -0.018856  -0.000061   0.000650
    15  H   -0.000000   0.000000  -0.000012   0.016528  -0.000001  -0.000361
    16  H    0.000003  -0.000000  -0.000020   0.000533   0.000002  -0.000013
    17  C    0.005038   0.000992  -0.000177  -0.071509   0.000915   0.003032
    18  C    0.000536   0.004315  -0.000995   0.006579   0.000101  -0.000145
    19  C   -0.041177   0.003136   0.000902   0.300722   0.000132  -0.047408
    20  C    0.004581  -0.041588  -0.000126  -0.000100   0.000410   0.000017
    21  H    0.000018  -0.000195  -0.000020  -0.000093  -0.000004   0.000001
    22  C    0.347665  -0.038213   0.000083  -0.081506   0.000271  -0.014562
    23  C   -0.043267   0.354206  -0.000010   0.006371   0.000420   0.000387
    24  H   -0.000187  -0.005226  -0.000001   0.000004  -0.000006  -0.000000
    25  H    0.607048  -0.005432   0.000000  -0.008617   0.000003   0.005019
    26  H   -0.005432   0.602610  -0.000000  -0.000115  -0.000006  -0.000014
    27  N    0.000000  -0.000000   6.811513  -0.000215   0.579735   0.000215
    28  N   -0.008617  -0.000115  -0.000215   6.807046  -0.000085   0.582037
    29  C    0.000003  -0.000006   0.579735  -0.000085   4.753226   0.000077
    30  C    0.005019  -0.000014   0.000215   0.582037   0.000077   4.766354
    31  H    0.004920   0.000025  -0.000017  -0.057139  -0.000042   0.335217
    32  C   -0.000433  -0.000000   0.000000  -0.065200  -0.000000   0.354010
    33  H    0.000018   0.000000  -0.000000   0.000516   0.000000  -0.027414
    34  H    0.000011  -0.000000   0.000001   0.000266   0.000000  -0.026425
    35  H    0.000011   0.000000  -0.000000   0.006983  -0.000000  -0.029752
    36  C   -0.000034  -0.000008  -0.064203   0.000029   0.352857  -0.000289
    37  H   -0.000007   0.000000   0.007018  -0.000020  -0.029759   0.000065
    38  H    0.000109   0.000063  -0.000097  -0.000040  -0.025858  -0.000202
    39  H    0.000000   0.000000   0.000800  -0.000001  -0.026694   0.000005
    40  H   -0.000001  -0.000001  -0.057739  -0.000001   0.337458   0.000003
              31         32         33         34         35         36
     1  C   -0.000000   0.000000  -0.000000  -0.000000  -0.000000  -0.000000
     2  C    0.000000  -0.000000  -0.000000   0.000000   0.000000   0.000006
     3  C    0.000006   0.000000   0.000000  -0.000000   0.000000  -0.000293
     4  C   -0.000005  -0.000000  -0.000000   0.000000  -0.000000   0.004498
     5  C   -0.000000   0.000000  -0.000000   0.000000  -0.000000   0.000199
     6  C    0.000000   0.000000   0.000000  -0.000000   0.000000   0.000009
     7  H   -0.000000  -0.000000   0.000000   0.000000  -0.000000   0.000000
     8  H    0.000000  -0.000000   0.000000  -0.000000   0.000000  -0.000000
     9  H    0.000000  -0.000000  -0.000000   0.000000   0.000000  -0.000475
    10  H    0.000000   0.000000  -0.000000   0.000000   0.000000  -0.000000
    11  C   -0.000104   0.000015   0.000000   0.000003  -0.000006   0.000008
    12  H    0.000236  -0.000113   0.000002   0.000001   0.000026  -0.000152
    13  H    0.000001  -0.000001  -0.000000   0.000000   0.000001  -0.000001
    14  C    0.000137  -0.000019   0.000001  -0.000003  -0.000015   0.000003
    15  H    0.000108  -0.000125  -0.000000   0.000006   0.000167  -0.000000
    16  H    0.000003  -0.000001   0.000000   0.000000   0.000000   0.000000
    17  C    0.000440  -0.000233  -0.000004   0.000022  -0.000031   0.000043
    18  C   -0.000073   0.000006  -0.000000  -0.000000  -0.000000   0.000001
    19  C   -0.008715   0.004620  -0.000066  -0.000193   0.000358   0.000058
    20  C   -0.000006  -0.000000   0.000000  -0.000000   0.000000  -0.000096
    21  H    0.000000  -0.000000  -0.000000   0.000000  -0.000000  -0.000001
    22  C    0.011926   0.000162   0.000005   0.000008   0.000023  -0.000851
    23  C   -0.000654   0.000008  -0.000001   0.000000  -0.000000  -0.000749
    24  H   -0.000000   0.000000  -0.000000  -0.000000   0.000000   0.000000
    25  H    0.004920  -0.000433   0.000018   0.000011   0.000011  -0.000034
    26  H    0.000025  -0.000000   0.000000  -0.000000   0.000000  -0.000008
    27  N   -0.000017   0.000000  -0.000000   0.000001  -0.000000  -0.064203
    28  N   -0.057139  -0.065200   0.000516   0.000266   0.006983   0.000029
    29  C   -0.000042  -0.000000   0.000000   0.000000  -0.000000   0.352857
    30  C    0.335217   0.354010  -0.027414  -0.026425  -0.029752  -0.000289
    31  H    0.655468  -0.078861   0.001774   0.002437   0.005557   0.000509
    32  C   -0.078861   5.205934   0.359908   0.359008   0.358743   0.000001
    33  H    0.001774   0.359908   0.557925  -0.032431  -0.022895  -0.000000
    34  H    0.002437   0.359008  -0.032431   0.553217  -0.022194   0.000000
    35  H    0.005557   0.358743  -0.022895  -0.022194   0.524949   0.000000
    36  C    0.000509   0.000001  -0.000000   0.000000   0.000000   5.222807
    37  H    0.001115  -0.000009   0.000000   0.000008   0.000000   0.356738
    38  H    0.000932   0.000001  -0.000000   0.000000   0.000000   0.354280
    39  H    0.000002  -0.000000   0.000000   0.000000   0.000000   0.355733
    40  H    0.000001   0.000000   0.000000   0.000000  -0.000000  -0.078240
              37         38         39         40
     1  C    0.000000  -0.000000   0.000000  -0.000011
     2  C   -0.000000  -0.000000  -0.000000  -0.000070
     3  C   -0.000019   0.000027  -0.000003   0.000835
     4  C    0.000374  -0.000221  -0.000076  -0.008065
     5  C    0.000020   0.000007   0.000004   0.011757
     6  C   -0.000000   0.000000  -0.000001  -0.000670
     7  H    0.000000  -0.000000  -0.000000  -0.000000
     8  H   -0.000000   0.000000  -0.000000   0.000000
     9  H    0.000013   0.000012   0.000024   0.004984
    10  H    0.000000  -0.000000   0.000000   0.000026
    11  C   -0.000025  -0.000004   0.000000   0.000071
    12  H    0.000178   0.000006   0.000001   0.000144
    13  H    0.000000   0.000000  -0.000000   0.000002
    14  C    0.000000   0.000000   0.000000  -0.000026
    15  H    0.000000   0.000000  -0.000000   0.000000
    16  H   -0.000000   0.000000  -0.000000  -0.000002
    17  C   -0.000019  -0.000076   0.000000  -0.000034
    18  C   -0.000000  -0.000059  -0.000002   0.000409
    19  C   -0.000008   0.000147   0.000007  -0.000032
    20  C    0.000003   0.000040  -0.000002   0.000903
    21  H   -0.000000  -0.000000  -0.000000   0.000007
    22  C   -0.000011   0.003279   0.000028  -0.000112
    23  C   -0.000008   0.001806   0.000010   0.000138
    24  H    0.000000  -0.000001  -0.000000   0.000029
    25  H   -0.000007   0.000109   0.000000  -0.000001
    26  H    0.000000   0.000063   0.000000  -0.000001
    27  N    0.007018  -0.000097   0.000800  -0.057739
    28  N   -0.000020  -0.000040  -0.000001  -0.000001
    29  C   -0.029759  -0.025858  -0.026694   0.337458
    30  C    0.000065  -0.000202   0.000005   0.000003
    31  H    0.001115   0.000932   0.000002   0.000001
    32  C   -0.000009   0.000001  -0.000000   0.000000
    33  H    0.000000  -0.000000   0.000000   0.000000
    34  H    0.000008   0.000000   0.000000   0.000000
    35  H    0.000000   0.000000   0.000000  -0.000000
    36  C    0.356738   0.354280   0.355733  -0.078240
    37  H    0.534471  -0.022911  -0.023469   0.005625
    38  H   -0.022911   0.547273  -0.030890   0.002319
    39  H   -0.023469  -0.030890   0.563747   0.001550
    40  H    0.005625   0.002319   0.001550   0.651244
 Mulliken charges:
               1
     1  C   -0.123533
     2  C   -0.202953
     3  C    0.151350
     4  C    0.204176
     5  C   -0.152320
     6  C   -0.143819
     7  H    0.124196
     8  H    0.121801
     9  H    0.124027
    10  H    0.125791
    11  C   -0.347141
    12  H    0.171357
    13  H    0.137680
    14  C   -0.341702
    15  H    0.164369
    16  H    0.136648
    17  C    0.152923
    18  C   -0.200683
    19  C    0.211812
    20  C   -0.127371
    21  H    0.132442
    22  C   -0.157864
    23  C   -0.147962
    24  H    0.125290
    25  H    0.124321
    26  H    0.125441
    27  N   -0.429523
    28  N   -0.426407
    29  C    0.110086
    30  C    0.098163
    31  H    0.124802
    32  C   -0.497420
    33  H    0.162663
    34  H    0.166256
    35  H    0.178073
    36  C   -0.502385
    37  H    0.170634
    38  H    0.170059
    39  H    0.159226
    40  H    0.127499
 Sum of Mulliken charges =  -0.00000
 Mulliken charges with hydrogens summed into heavy atoms:
               1
     1  C    0.000663
     2  C   -0.081152
     3  C    0.151350
     4  C    0.204176
     5  C   -0.028293
     6  C   -0.018028
    11  C   -0.038103
    14  C   -0.040685
    17  C    0.152923
    18  C   -0.068240
    19  C    0.211812
    20  C   -0.002082
    22  C   -0.033543
    23  C   -0.022521
    27  N   -0.429523
    28  N   -0.426407
    29  C    0.237585
    30  C    0.222965
    32  C    0.009572
    36  C   -0.002466
 Electronic spatial extent (au):  <R**2>=           5473.7552
 Charge=             -0.0000 electrons
 Dipole moment (field-independent basis, Debye):
    X=              0.8705    Y=              1.7517    Z=              0.9279  Tot=              2.1650
 Quadrupole moment (field-independent basis, Debye-Ang):
   XX=           -108.8012   YY=           -109.7934   ZZ=           -118.3126
   XY=              0.5258   XZ=              9.6604   YZ=              1.9539
 Traceless Quadrupole moment (field-independent basis, Debye-Ang):
   XX=              3.5012   YY=              2.5090   ZZ=             -6.0102
   XY=              0.5258   XZ=              9.6604   YZ=              1.9539
 Octapole moment (field-independent basis, Debye-Ang**2):
  XXX=             16.1236  YYY=             11.2697  ZZZ=             11.7512  XYY=              1.2822
  XXY=              7.2007  XXZ=             17.0372  XZZ=              6.2764  YZZ=              7.1282
  YYZ=              3.5831  XYZ=            -17.2744
 Hexadecapole moment (field-independent basis, Debye-Ang**3):
 XXXX=          -4120.1380 YYYY=          -1572.7624 ZZZZ=          -1499.2792 XXXY=            -39.7251
 XXXZ=            132.1825 YYYX=              4.2496 YYYZ=              4.1379 ZZZX=             58.0320
 ZZZY=              7.0097 XXYY=           -977.4738 XXZZ=           -989.9296 YYZZ=           -480.2326
 XXYZ=              6.0058 YYXZ=              9.3590 ZZXY=            -16.9861
 N-N= 1.494496833292D+03 E-N=-4.859876047360D+03  KE= 7.995583334275D+02
 Calling FoFJK, ICntrl=      2127 FMM=F ISym2X=0 I1Cent= 0 IOpClX= 0 NMat=1 NMatS=1 NMatT=0.
 ***** Axes restored to original set *****
 -------------------------------------------------------------------
 Center     Atomic                   Forces (Hartrees/Bohr)
 Number     Number              X              Y              Z
 -------------------------------------------------------------------
      1        6           0.000004536    0.000006799   -0.000002357
      2        6          -0.000005067    0.000000468   -0.000003002
      3        6           0.000006819   -0.000000229    0.000000430
      4        6           0.000000999   -0.000003366    0.000008550
      5        6          -0.000003650    0.000001602   -0.000003786
      6        6           0.000000945   -0.000008096    0.000003715
      7        1          -0.000000664   -0.000001628    0.000000572
      8        1           0.000001049   -0.000000504    0.000000446
      9        1          -0.000001433    0.000000258    0.000000767
     10        1           0.000000227    0.000001271   -0.000000861
     11        6          -0.000002589   -0.000000274   -0.000000184
     12        1          -0.000000674   -0.000000333   -0.000000884
     13        1           0.000000302   -0.000001163   -0.000000525
     14        6          -0.000002204   -0.000003430    0.000001232
     15        1           0.000000467    0.000002007   -0.000000416
     16        1           0.000000966    0.000000300   -0.000000710
     17        6          -0.000000168    0.000000554    0.000002478
     18        6           0.000001334   -0.000000390   -0.000002843
     19        6          -0.000017460   -0.000000191    0.000004771
     20        6          -0.000000606    0.000000460    0.000001851
     21        1          -0.000000037    0.000000181    0.000000409
     22        6           0.000007139    0.000002550    0.000003006
     23        6           0.000000445    0.000000315   -0.000001631
     24        1           0.000000227    0.000000304    0.000000081
     25        1          -0.000001027    0.000002223    0.000001967
     26        1          -0.000000267    0.000000795   -0.000000047
     27        7          -0.000001617    0.000003075   -0.000006326
     28        7           0.000009801    0.000001240   -0.000007748
     29        6           0.000002735   -0.000000121    0.000003223
     30        6           0.000006259   -0.000007783   -0.000001068
     31        1          -0.000000584    0.000001145   -0.000002532
     32        6          -0.000008459    0.000004221    0.000006002
     33        1          -0.000000650   -0.000000948   -0.000001831
     34        1           0.000002132    0.000000352   -0.000000692
     35        1          -0.000000132   -0.000000216   -0.000000483
     36        6           0.000001506   -0.000001393   -0.000002675
     37        1          -0.000001108    0.000000079   -0.000000243
     38        1          -0.000001460    0.000000176    0.000001869
     39        1          -0.000000117    0.000000141    0.000000844
     40        1           0.000002086   -0.000000450   -0.000001371
 -------------------------------------------------------------------
 Cartesian Forces:  Max     0.000017460 RMS     0.000003317

 GradGradGradGradGradGradGradGradGradGradGradGradGradGradGradGradGradGrad
 Berny optimization.
 FormGI is forming the generalized inverse of G from B-inverse, IUseBI=4.
 Internal  Forces:  Max     0.000013338 RMS     0.000002282
 Search for a local minimum.
 Step number   1 out of a maximum of  208
 All quantities printed in internal units (Hartrees-Bohrs-Radians)
 Mixed Optimization -- En-DIIS/RFO-DIIS
 Second derivative matrix not updated -- first step.
 ITU=  0
     Eigenvalues ---    0.00230   0.00594   0.00624   0.00791   0.00796
     Eigenvalues ---    0.01429   0.01445   0.01479   0.01484   0.01527
     Eigenvalues ---    0.01541   0.01909   0.01914   0.01980   0.01980
     Eigenvalues ---    0.02095   0.02095   0.02109   0.02110   0.02121
     Eigenvalues ---    0.02122   0.02144   0.02146   0.02154   0.02156
     Eigenvalues ---    0.02158   0.02170   0.03352   0.03352   0.03862
     Eigenvalues ---    0.03872   0.05385   0.05387   0.07284   0.07301
     Eigenvalues ---    0.07411   0.07447   0.09551   0.09611   0.12996
     Eigenvalues ---    0.13028   0.15986   0.15990   0.15996   0.15997
     Eigenvalues ---    0.15998   0.15999   0.15999   0.15999   0.16000
     Eigenvalues ---    0.16000   0.16000   0.16000   0.16000   0.16000
     Eigenvalues ---    0.16000   0.16000   0.22000   0.22000   0.22000
     Eigenvalues ---    0.22000   0.22016   0.22033   0.22485   0.22486
[...]
 1,-0.00000941,-0.00004394,0.00000755,0.00004324,-0.00006394,0.00048880
 ,-0.00026772,-0.00023627,-0.00002149,0.00001152,0.00002373,0.00008127,
 0.00010148,0.00003095,-0.00007347,-0.00001083,0.00001196,-0.00001330,0
 .03504001,-0.02502240,0.02306549,-0.00014651,-0.00002300,-0.00017275,0
 .02351103,-0.09435568,0.01348573,0.00010327,-0.00009824,0.00014874,-0.
 00011027,0.00011226,0.00017766,-0.00004331,0.00001596,0.00000556,-0.00
 002550,-0.00002344,0.00000059,-0.00001156,-0.00008475,-0.00004368,0.00
 001254,0.00000634,-0.00002450,0.02454164,0.57822144,0.00037757,0.00046
 470,-0.00007956,-0.00070113,-0.00079235,-0.00053321,0.00224667,-0.0007
 1059,0.00133602,-0.00793015,-0.00504472,0.00978434,-0.00121040,0.00132
 198,-0.00088896,0.00007910,-0.00083674,0.00014507,-0.00000057,0.000030
 25,0.00002478,0.00012983,-0.00005129,0.00010628,-0.00003240,0.00001797
 ,-0.00008356,-0.00007790,0.00004752,-0.00003407,0.00036657,0.00032360,
 0.00037093,-0.00009337,0.00000610,-0.00015450,-0.00004731,0.00000605,-
 0.00005167,-0.00012921,0.00000439,-0.00000929,-0.00001637,-0.00001661,
 0.00003180,0.00001262,-0.00002029,-0.00005968,-0.00007227,-0.00005164,
 0.00001341,0.00004187,0.00005357,0.00002436,0.00017068,0.00017074,0.00
 025429,-0.00003144,-0.00011087,-0.00001171,0.00000521,-0.00001904,0.00
 000152,-0.00007104,-0.00004942,-0.00018310,0.00005681,0.00005346,-0.00
 002533,-0.00000020,0.00000671,0.00001844,0.00009600,0.00004742,-0.0000
 1321,0.00001492,-0.00005411,-0.00007038,0.00456358,0.00994593,0.001448
 19,-0.00005346,0.00008676,-0.00011566,-0.07071955,0.01663366,-0.127418
 57,0.00015756,-0.00037425,0.00009780,-0.00015473,0.00036672,0.00004931
 ,-0.00006071,0.00005752,-0.00005108,0.00001298,-0.00000920,-0.00000641
 ,-0.00003399,-0.00004914,-0.00004075,0.00001996,0.00002488,0.00000057,
 -0.00855113,0.03361006,0.54092116,0.00003736,0.00003918,-0.00000669,-0
 .00008998,-0.00000891,-0.00003777,0.00009842,-0.00015894,0.00010952,-0
 .00022931,0.00045805,0.00023254,0.00007627,0.00002959,0.00014786,0.000
 07614,0.00002116,-0.00002540,0.00000022,0.00000535,-0.00000662,0.00000
 535,-0.00000182,-0.00000131,0.00006325,0.00002361,-0.00008685,0.000011
 46,-0.00000760,-0.00000041,-0.00001190,0.00001948,-0.00002206,0.000025
 65,0.00003572,-0.00002637,0.00000840,0.00000460,0.00001280,0.00001188,
 -0.00000140,-0.00000149,0.00000047,-0.00000687,0.00000597,-0.00001091,
 -0.00000035,0.00000883,0.00000610,-0.00004718,0.00000533,0.00001472,-0
 .00001588,-0.00002249,0.00005997,0.00004515,0.00007907,-0.00003973,0.0
 0001164,-0.00002734,0.00000077,-0.00001337,0.00000841,0.00002750,-0.00
 001861,0.00000416,-0.00001856,-0.00000630,0.00002664,-0.00000679,0.000
 00487,0.00001297,-0.00000464,0.00001639,0.00001417,0.00001641,-0.00001
 903,-0.00003236,0.00268316,-0.00106966,0.00296330,-0.00009150,0.000197
 17,-0.00019157,-0.01222300,-0.02285811,-0.01693693,0.00005458,-0.00040
 975,0.00024219,-0.00002045,0.00009718,0.00000304,-0.00002832,0.0000619
 4,-0.00006560,-0.00001391,-0.00001140,0.00000739,0.00001285,-0.0000199
 8,0.00000273,0.00001161,0.00002816,-0.00000168,-0.08980856,-0.07452742
 ,-0.05748210,0.09489191,-0.00007214,-0.00008486,0.00002293,0.00013685,
 0.00000953,0.00002047,-0.00012904,0.00009814,-0.00014924,0.00035253,-0
 .00018046,0.00034027,0.00011426,-0.00009375,-0.00002741,-0.00006640,0.
 00004288,-0.00008151,-0.00000987,0.00000583,0.00000644,-0.00000733,0.0
 0001167,-0.00000924,-0.00000601,-0.00001315,0.00004428,-0.00001518,0.0
 0000083,-0.00000294,-0.00002815,-0.00002351,0.00003081,-0.00000701,-0.
 00004125,0.00002641,0.00000145,0.00001454,-0.00002043,0.00000035,-0.00
 000067,0.00000455,0.00000243,0.00000731,-0.00000911,0.00000566,-0.0000
 0237,-0.00000337,-0.00000907,0.00003207,-0.00000255,0.00000939,0.00000
 071,0.00000084,-0.00005446,-0.00004082,-0.00005761,0.00003683,0.000019
 39,0.00000718,0.00000246,0.00000268,0.00000801,-0.00002452,0.00002502,
 0.00001192,0.00000955,-0.00000285,-0.00002679,0.00000382,-0.00000141,0
 .00001037,0.00001905,-0.00000746,-0.00001301,-0.00001488,0.00000898,0.
 00001692,-0.00047484,0.00124718,0.00014644,0.00011707,-0.00011106,0.00
 016778,0.00474345,0.01019687,0.00769849,-0.00015082,0.00026792,-0.0002
 0531,0.00002326,-0.00010182,0.00000182,0.00001895,-0.00005835,0.000063
 75,0.00002074,0.00001279,-0.00000951,-0.00001838,0.00000825,-0.0000040
 3,-0.00000638,-0.00002183,-0.00000549,-0.07828360,-0.19529544,-0.11355
 188,0.08349931,0.20733478,0.00001991,0.00006146,-0.00003045,-0.0000648
 0,0.00002345,-0.00003306,-0.00002437,-0.00015976,0.00004060,0.00021640
 ,0.00046551,0.00001848,0.00002616,-0.00000319,0.00019914,0.00012235,0.
 00001252,0.00001158,0.00000214,0.00000494,-0.00000943,-0.00001068,0.00
 001254,-0.00000442,0.00005558,0.00003171,-0.00009292,0.00000657,-0.000
 00343,0.00000708,-0.00004952,0.00001966,-0.00006105,-0.00002746,0.0000
 4898,-0.00000380,0.00003070,-0.00000010,0.00001132,-0.00001087,0.00001
 987,0.00001044,0.00000055,0.00002266,-0.00002622,0.00001536,-0.0000042
 8,0.00001636,-0.00003665,0.00005157,-0.00004248,0.00001784,0.00001163,
 -0.00000057,-0.00018882,-0.00011400,-0.00021486,0.00010828,0.00004565,
 0.00002107,0.00001203,0.00000015,0.00002495,0.00001599,-0.00000146,0.0
 0009489,-0.00003357,0.00000605,-0.00007316,0.00000743,0.00001014,0.000
 02867,0.00003891,-0.00001722,-0.00003854,-0.00001951,0.00003160,0.0000
 3698,0.00273715,-0.00030672,0.00143488,0.00014878,-0.00027833,0.000294
 90,-0.00755901,-0.01528989,-0.01207701,-0.00014623,0.00082795,-0.00036
 353,0.00019378,-0.00034102,0.00005663,0.00006845,-0.00013075,0.0001501
 2,-0.00000227,0.00001822,0.00000075,0.00001877,0.00002712,0.00001354,-
 0.00002839,-0.00006160,-0.00001516,-0.05899725,-0.11071949,-0.13682056
 ,0.06725906,0.12290770,0.14450330,-0.00015134,-0.00009720,-0.00000812,
 0.00017226,0.00021691,0.00011263,-0.00070681,-0.00011646,-0.00036154,0
 .00151354,0.00103317,-0.00158836,0.00021186,0.00003893,0.00010250,-0.0
 0005216,0.00016716,-0.00009752,-0.00001622,0.00000441,-0.00001571,-0.0
 0005796,0.00005144,-0.00004647,0.00003868,-0.00001953,0.00003377,-0.00
 003499,-0.00001336,-0.00001695,-0.00009594,-0.00012209,-0.00001030,-0.
 00000913,-0.00002694,0.00002784,0.00005212,0.00002515,-0.00003328,-0.0
 0000468,0.00005916,0.00002056,0.00003675,-0.00002173,-0.00003132,0.000
 00767,-0.00002481,0.00000546,-0.00004072,0.00009436,0.00000989,-0.0000
 2300,-0.00001003,-0.00004094,0.00003167,0.00006527,0.00003513,-0.00023
 558,0.00001442,-0.00004734,0.00001931,-0.00000986,0.00003689,0.0000965
 8,0.00008876,0.00034655,-0.00008462,-0.00030011,0.00025507,-0.00000375
 ,0.00000192,-0.00001863,-0.00004964,-0.00002473,0.00004172,0.00006915,
 -0.00001136,-0.00007319,-0.00346093,-0.00089006,-0.00075246,0.00001400
 ,-0.00001563,-0.00008093,-0.01689002,0.01149796,0.01663076,-0.00000268
 ,-0.00004001,0.00004087,-0.00002251,-0.00003377,0.00001773,-0.00000384
 ,0.00000523,-0.00001512,-0.00000722,-0.00000932,-0.00000131,-0.0000021
 0,-0.00000083,-0.00000622,-0.00000418,-0.00000060,0.00000363,-0.176725
 66,0.06350481,0.11273775,0.01144604,-0.00406125,-0.00877812,0.19127438
 ,0.00006018,0.00001184,0.00004318,-0.00005394,-0.00012490,-0.00004779,
 0.00042171,0.00007821,0.00016454,-0.00084106,-0.00061118,0.00157978,-0
 .00006310,0.00003130,-0.00010361,-0.00003293,-0.00011780,-0.00003397,0
 .00000179,-0.00000230,0.00000645,0.00003532,-0.00003195,0.00002070,-0.
 00004925,0.00000738,0.00001391,0.00000397,0.00000682,-0.00000004,0.000
 08588,0.00009262,0.00002373,0.00000804,-0.00000118,-0.00005745,-0.0000
 4845,0.00000377,0.00002245,-0.00001633,-0.00006953,-0.00000674,-0.0000
 1475,0.00000591,0.00003855,-0.00002942,0.00002604,-0.00001360,0.000135
 75,-0.00015397,0.00003509,-0.00005784,-0.00001910,0.00002694,0.0001739
 6,-0.00041923,-0.00007856,0.00000023,0.00000331,0.00003869,-0.00002798
 ,0.00000262,-0.00003575,-0.00018672,0.00013307,-0.00050442,0.00020549,
 0.00042547,0.00012269,-0.00003509,-0.00001161,-0.00004178,-0.00015872,
 -0.00000116,0.00015237,0.00002680,-0.00004875,-0.00003223,0.00293757,0
 .00065792,0.00063937,-0.00008891,0.00038697,-0.00016064,0.00943765,-0.
 00786784,-0.00664585,0.00004383,-0.00067948,0.00030452,-0.00008130,0.0
 0010659,-0.00018367,-0.00003742,0.00011379,-0.00010243,0.00000906,0.00
 000193,0.00000687,0.00001163,0.00001981,0.00002766,0.00001993,0.000052
 60,0.00001271,0.06315445,-0.07793643,-0.06164673,0.01770702,-0.0071512
 8,-0.01309679,-0.07350234,0.08327136,-0.00006972,-0.00005316,-0.000005
 85,0.00011332,0.00017693,0.00006149,-0.00047763,0.00004599,-0.00033915
 ,0.00150239,0.00080813,-0.00105378,0.00006446,-0.00004027,0.00003771,-
 0.00003352,0.00006492,-0.00002671,-0.00000607,-0.00000016,-0.00000501,
 -0.00004092,0.00002703,-0.00003241,-0.00000089,-0.00001420,0.00001374,
 -0.00001144,-0.00000700,-0.00001069,-0.00003226,-0.00006500,-0.0000154
 8,-0.00000878,-0.00001392,0.00001153,0.00003006,0.00001134,-0.00002015
 ,-0.00000505,0.00007351,0.00003546,0.00001910,-0.00002226,-0.00002137,
 0.00000459,-0.00001863,0.00000454,0.00002898,0.00004228,-0.00000921,-0
 .00002569,-0.00002316,-0.00008603,-0.00005695,0.00031203,0.00017633,-0
 .00019495,-0.00000622,-0.00004246,0.00001913,-0.00000479,0.00000987,0.
 00027522,-0.00000481,0.00009286,-0.00000497,-0.00029965,-0.00017564,0.
 00001214,0.00000393,0.00000854,-0.00000587,0.00001851,-0.00003841,0.00
 004515,0.00000223,-0.00007417,-0.00217092,0.00082580,-0.00090473,-0.00
 008852,0.00007671,-0.00023188,-0.01356529,0.00751095,0.01512057,0.0001
 0338,-0.00031575,0.00027181,-0.00000088,0.00007900,-0.00002181,-0.0000
 2625,0.00006241,-0.00008514,-0.00002078,-0.00002115,0.00000230,0.00000
 409,-0.00001130,-0.00000329,0.00000653,0.00002253,0.00000854,0.1106548
 3,-0.06042387,-0.14703558,0.01240475,-0.00396850,-0.01051292,-0.123415
 08,0.06315375,0.15771853,-0.00005449,0.00005293,-0.00002621,-0.0000511
 2,-0.00014336,-0.00008461,0.00008796,-0.00030480,0.00002899,-0.0021203
 2,-0.00022980,0.00185516,-0.00015617,0.00062755,-0.00026207,-0.0000430
 4,-0.00016117,-0.00010277,-0.00001037,0.00000904,0.00001074,-0.0000065
 1,0.00002628,-0.00000379,-0.00006469,-0.00004209,0.00005744,-0.0000569
 8,0.00000443,-0.00003370,0.00001486,0.00002152,0.00009334,-0.00002862,
 0.00002113,-0.00002846,0.00003905,0.00002004,-0.00002159,-0.00002879,0
 .00003571,0.00002984,0.00001407,0.00000286,-0.00002812,0.00001544,-0.0
 0001797,-0.00000086,-0.00006525,0.00007545,-0.00001134,0.00003642,0.00
 001167,-0.00000962,-0.00010570,0.00010174,-0.00003888,-0.00001330,0.00
 001315,0.00000397,0.00001660,0.00000151,0.00002472,0.00003925,-0.00003
 877,0.00027674,-0.00007491,-0.00017658,0.00001122,0.00001308,0.0000025
 5,0.00000771,0.00007485,-0.00000038,-0.00005668,0.00001091,0.00000988,
 -0.00001770,-0.00182975,0.00111031,-0.00259706,0.00010083,-0.00024556,
 0.00015124,0.01018445,0.02356081,-0.01560035,-0.00009725,0.00048056,-0
 .00025120,0.00007143,-0.00014295,0.00007054,0.00004216,-0.00008260,0.0
 0007158,-0.00000522,0.00000529,0.00000077,0.00000492,0.00000866,-0.000
 00055,-0.00001878,-0.00003587,-0.00000585,-0.06861261,-0.06006205,0.04
 149972,-0.00443395,-0.00777414,0.00807568,-0.00710001,-0.01896070,0.01
 376202,0.07411853,-0.00002538,-0.00000082,-0.00000541,0.00003072,0.000
 04151,0.00006660,-0.00009698,0.00012226,-0.00006397,0.00138236,0.00044
 424,-0.00072418,0.00020681,-0.00048090,0.00016264,0.00009656,0.0001207
 7,0.00000261,0.00001302,-0.00000909,-0.00000818,0.00000180,-0.00000813
 ,0.00000601,0.00000807,0.00002001,-0.00000942,0.00004302,-0.00000436,0
 .00003296,-0.00005423,-0.00001503,-0.00007275,0.00001534,0.00002774,0.
 00002351,0.00001215,-0.00002129,0.00002433,0.00001340,0.00000374,-0.00
 001327,-0.00000440,0.00000364,-0.00000348,0.00000371,0.00000238,0.0000
 1567,0.00000686,0.00001720,-0.00000118,-0.00003072,-0.00001230,0.00000
 943,-0.00003267,-0.00005005,-0.00007411,0.00003128,-0.00000716,0.00001
 109,0.00000408,0.00000162,-0.00000276,0.00000556,0.00000119,-0.0000142
 5,0.00001151,0.00003070,-0.00002981,0.00000198,0.00000491,0.00000012,-
 0.00000291,-0.00000307,-0.00000510,-0.00000176,0.00000826,0.00000345,0
 .00094334,0.00010465,0.00279483,0.00001068,-0.00007238,0.00007473,-0.0
 0153637,-0.01119541,0.00524005,-0.00000817,0.00022543,-0.00007656,0.00
 002964,-0.00011688,0.00000799,0.00001725,-0.00003745,0.00003032,-0.000
 00767,0.00000303,0.00000144,0.00001268,0.00001476,0.00000944,-0.000009
 09,-0.00001731,0.00000024,-0.06226853,-0.19457104,0.11388334,-0.005908
 47,-0.01566879,0.01441980,0.00298762,0.00968805,-0.00743003,0.06343007
 ,0.21104376,-0.00007424,0.00003704,-0.00004382,-0.00004620,-0.00008125
 ,-0.00001688,-0.00004976,-0.00023118,-0.00005072,-0.00073608,-0.000078
 86,0.00101660,-0.00013893,0.00045117,-0.00013281,0.00001425,-0.0000750
 0,-0.00010250,-0.00001681,0.00001302,0.00000660,-0.00000935,0.00002673
 ,-0.00001250,-0.00002376,0.00000177,0.00005474,-0.00004971,-0.00000196
 ,-0.00002238,0.00001485,0.00000209,0.00004542,-0.00002417,0.00001049,-
 0.00002910,0.00002451,0.00002930,-0.00000913,-0.00002067,0.00001084,0.
 00003938,0.00001695,0.00000732,-0.00001909,-0.00000249,-0.00000616,-0.
 00000328,-0.00000533,0.00001578,-0.00001946,-0.00002066,0.00002126,-0.
 00000015,-0.00004968,-0.00012560,-0.00006391,0.00005978,0.00000752,0.0
 0004987,0.00000406,0.00000955,0.00001056,-0.00000292,0.00002179,-0.000
 13590,0.00003106,0.00011064,-0.00001511,-0.00001216,-0.00000603,-0.000
 02538,-0.00001444,-0.00000544,0.00001777,0.00001913,-0.00001255,-0.000
 00489,-0.00084995,-0.00024508,-0.00169556,0.00006486,-0.00002514,0.000
 06422,0.00673117,0.01311320,-0.00840889,-0.00007452,0.00008691,-0.0000
 8082,0.00004846,-0.00006225,-0.00002504,0.00001853,-0.00001474,0.00001
 968,0.00000945,0.00000808,0.00000248,0.00000584,0.00002252,0.00001144,
 -0.00000702,-0.00000571,0.00000206,0.04294935,0.11453923,-0.13709299,-
 0.00539237,-0.01439272,0.01351412,0.00624794,0.01587180,-0.01262313,-0
 .04801625,-0.12819065,0.14523560,0.00017895,-0.00035113,0.00023590,0.0
 0007517,-0.00008590,-0.00032218,0.00098312,-0.00049221,0.00012543,-0.0
 0342454,0.00089042,0.00609400,0.00027209,0.00032518,0.00051729,-0.0003
 6775,-0.00018441,-0.00052067,-0.00001670,0.00001850,0.00003996,0.00001
 372,-0.00002273,0.00005535,-0.00098168,0.00068776,0.00020300,-0.000073
 37,0.00011228,0.00008590,0.00030245,0.00032015,0.00028061,-0.00022637,
 -0.00005604,-0.00023797,-0.00006434,0.00002519,-0.00004814,-0.00018348
 ,-0.00006691,-0.00002059,-0.00003724,0.00003719,0.00004182,0.00002595,
 0.00000564,-0.00006742,0.00007072,-0.00012305,-0.00004148,0.00022632,-
 0.00009874,-0.00004723,-0.00017822,-0.00007881,-0.00012020,0.00013991,
 0.00023875,-0.00004265,-0.00001725,-0.00000215,-0.00000454,-0.00007438
 ,-0.00000726,0.00003687,-0.00011872,0.00010294,-0.00011911,-0.00000750
 ,-0.00000374,0.00010008,0.00005124,0.00001010,-0.00001215,-0.00002177,
 -0.00000004,0.00001622,0.01874706,0.00823283,-0.00473488,0.00008820,0.
 00000176,0.00018787,-0.11599616,-0.07052223,-0.07584222,-0.00010612,0.
 00014742,-0.00019861,0.00004091,-0.00006827,-0.00000919,0.00003514,-0.
 00004323,0.00004723,0.00001914,0.00002350,0.00000166,0.00000766,0.0000
 3802,0.00002325,-0.00000826,-0.00000978,0.00000117,-0.00616020,-0.0154
 7674,-0.01511998,-0.00260897,0.00209608,-0.00322034,0.00080167,-0.0001
 9401,0.00121231,0.00009303,0.00066781,-0.00062272,0.10850057,0.0006478
 9,0.00059224,-0.00013974,-0.00097833,-0.00006349,-0.00049552,0.0008128
 8,-0.00121394,0.00135660,-0.00762378,0.00375225,-0.00182119,0.00013388
 ,0.00057252,0.00057031,0.00059999,-0.00032797,0.00041129,0.00002610,0.
 00002060,-0.00004797,0.00003080,-0.00003664,0.00002218,0.00041234,0.00
 011041,-0.00059148,0.00006023,-0.00001290,0.00002058,0.00003378,0.0000
 8860,-0.00008223,0.00026546,0.00032541,-0.00013930,0.00002005,-0.00005
 180,0.00015670,0.00003084,-0.00005940,0.00000371,-0.00003048,0.0000289
 3,0.00002978,-0.00003845,0.00002111,0.00003800,-0.00000475,-0.00023571
 ,-0.00006004,0.00014126,-0.00002541,-0.00006066,-0.00003306,-0.0000835
 5,-0.00006705,0.00009496,0.00018417,-0.00005449,-0.00000488,-0.0000441
 9,0.00003931,-0.00000961,0.00000465,0.00001802,-0.00009287,0.00009801,
 -0.00008109,-0.00001578,0.00001871,0.00005691,0.00001105,0.00000980,0.
 00000363,0.00000390,-0.00000366,0.00000642,-0.00654909,-0.03820655,-0.
 02492158,-0.00000989,0.00010977,0.00004220,-0.06937802,-0.14850928,-0.
 08775769,0.00002153,-0.00005156,0.00001600,0.00001129,-0.00000543,-0.0
 0000384,0.00000150,0.00000602,0.00000142,-0.00000183,0.00000882,0.0000
 0468,0.00001492,0.00000455,0.00001865,0.00000568,0.00000694,-0.0000037
 6,0.00639813,0.00939078,0.00622553,0.00280549,-0.00044626,0.00144715,-
 0.00050464,0.00012032,-0.00057414,-0.00121433,0.00036161,-0.00085772,0
 .07390581,0.17354149,-0.00048557,-0.00049597,0.00008033,0.00064728,0.0
 0025244,0.00040051,-0.00115209,0.00052515,-0.00061614,0.00650288,0.004
 38379,-0.00321278,0.00098844,-0.00216285,0.00088347,0.00018220,0.00116
 910,-0.00063313,0.00000662,0.00002249,-0.00001658,0.00001704,-0.000002
 66,-0.00005112,0.00050154,0.00044632,-0.00025564,0.00014174,-0.0000482
 1,0.00010692,-0.00035339,-0.00028230,-0.00036564,0.00026275,0.00016236
 ,0.00025504,0.00011699,-0.00004915,0.00014324,0.00012389,-0.00000070,-
 0.00003960,0.00001827,0.00000542,-0.00001538,-0.00000902,0.00001446,0.
 00009397,-0.00002151,0.00002761,-0.00004447,-0.00000728,0.00004591,-0.
 00008779,-0.00009258,-0.00002446,-0.00002297,0.00005539,-0.00001848,-0
 .00007571,0.00001650,0.00000087,0.00001910,-0.00001123,-0.00011583,0.0
 0002285,0.00004188,0.00002488,-0.00003343,0.00002214,0.00001638,-0.000
 00512,0.00002569,0.00000406,-0.00002356,-0.00001661,0.00001489,0.00001
 101,-0.01315424,-0.00991098,0.01616215,0.00003624,-0.00006179,0.000093
 90,-0.07441467,-0.09071619,-0.14348337,0.00001855,0.00023130,-0.000082
 54,0.00003142,-0.00008312,0.00001553,0.00001878,-0.00003236,0.00002019
 ,-0.00000414,0.00000603,-0.00000095,0.00000847,0.00001407,0.00001144,-
 0.00000466,-0.00001681,0.00000300,-0.00881909,-0.01201013,-0.00384848,
 -0.00318333,0.00100324,-0.00006964,-0.00126783,0.00048631,-0.00019883,
 0.00116624,-0.00009550,0.00054285,0.09204633,0.10727041,0.13431736\\-0
 .00000472,-0.00000713,0.00000252,0.00000470,-0.00000029,0.00000279,-0.
 00000650,0.00000030,-0.00000034,-0.00000154,0.00000293,-0.00000845,0.0
 0000344,-0.00000144,0.00000363,-0.00000065,0.00000805,-0.00000360,0.00
 000070,0.00000168,-0.00000059,-0.00000100,0.00000061,-0.00000049,0.000
 00149,-0.00000014,-0.00000083,-0.00000014,-0.00000119,0.00000084,0.000
 00277,0.00000039,0.00000004,0.00000072,0.00000028,0.00000098,-0.000000
 34,0.00000122,0.00000053,0.00000217,0.00000350,-0.00000117,-0.00000042
 ,-0.00000197,0.00000043,-0.00000102,-0.00000029,0.00000065,0.00000006,
 -0.00000044,-0.00000246,-0.00000138,0.00000013,0.00000270,0.00001763,0
 .00000005,-0.00000475,0.00000071,-0.00000051,-0.00000181,-0.00000001,-
 0.00000013,-0.00000042,-0.00000713,-0.00000272,-0.00000307,-0.00000053
 ,-0.00000028,0.00000161,-0.00000021,-0.00000025,-0.00000005,0.00000101
 ,-0.00000219,-0.00000197,0.00000025,-0.00000074,0.00000006,0.00000182,
 -0.00000303,0.00000647,-0.00000978,-0.00000108,0.00000774,-0.00000260,
 -0.00000020,-0.00000326,-0.00000612,0.00000779,0.00000129,0.00000056,-
 0.00000113,0.00000249,0.00000841,-0.00000432,-0.00000607,0.00000064,0.
 00000096,0.00000183,-0.00000214,-0.00000035,0.00000069,0.00000014,0.00
 000025,0.00000047,-0.00000163,0.00000142,0.00000260,0.00000113,-0.0000
 0006,0.00000027,0.00000144,-0.00000016,-0.00000184,0.00000013,-0.00000
 010,-0.00000087,-0.00000206,0.00000057,0.00000143\\\@
 The archive entry for this job was punched.


 ...THE PHYSICISTS HAVE MADE THEIR UNIVERSE, AND IF YOU DO NOT LIKE
 IT, YOU MUST MAKE YOUR OWN.
                               -- E. R. HARRISON IN "COSMOLOGY" (1980)
 Job cpu time:       0 days  2 hours 47 minutes 13.2 seconds.
 Elapsed time:       0 days  0 hours 10 minutes 37.0 seconds.
 File lengths (MBytes):  RWF=    528 Int=      0 D2E=      0 Chk=     11 Scr=      1
 Normal termination of Gaussian 16 at Fri Oct  1 11:25:12 2021.
