 Entering Gaussian System, Link 0=/home/rong/g16/g16
 Input=/home/rong/g16/092321/HHbz.gjf
 Output=/home/rong/g16/092321/HHbz.log
 Initial command:
 /home/rong/g16/l1.exe "/tmp/Gau-82687.inp" -scrdir="/tmp/"
 Default is to use a total of   8 processors:
                                8 via shared-memory
                                1 via Linda
 Entering Link 1 = /home/rong/g16/l1.exe PID=     82689.
  
 Copyright (c) 1988-2019, Gaussian, Inc.  All Rights Reserved.
  
 This is part of the Gaussian(R) 16 program.  It is based on
 the Gaussian(R) 09 system (copyright 2009, Gaussian, Inc.),
 the Gaussian(R) 03 system (copyright 2003, Gaussian, Inc.),
 the Gaussian(R) 98 system (copyright 1998, Gaussian, Inc.),
 the Gaussian(R) 94 system (copyright 1995, Gaussian, Inc.),
 the Gaussian 92(TM) system (copyright 1992, Gaussian, Inc.),
 the Gaussian 90(TM) system (copyright 1990, Gaussian, Inc.),
 the Gaussian 88(TM) system (copyright 1988, Gaussian, Inc.),
 the Gaussian 86(TM) system (copyright 1986, Carnegie Mellon
 University), and the Gaussian 82(TM) system (copyright 1983,
 Carnegie Mellon University). Gaussian is a federally registered
 trademark of Gaussian, Inc.
  
 This software contains proprietary and confidential information,
 including trade secrets, belonging to Gaussian, Inc.
  
 This software is provided under written license and may be
 used, copied, transmitted, or stored only in accord with that
 written license.
  
 The following legend is applicable only to US Government
 contracts under FAR:
  
                    RESTRICTED RIGHTS LEGEND
  
 Use, reproduction and disclosure by the US Government is
 subject to restrictions as set forth in subparagraphs (a)
 and (c) of the Commercial Computer Software - Restricted
 Rights clause in FAR 52.227-19.
  
 Gaussian, Inc.
 340 Quinnipiac St., Bldg. 40, Wallingford CT 06492
  
  
 ---------------------------------------------------------------
 Warning -- This program may not be used in any manner that
 competes with the business of Gaussian, Inc. or will provide
 assistance to any competitor of Gaussian, Inc.  The licensee
 of this program is prohibited from giving any competitor of
 Gaussian, Inc. access to this program.  By using this program,
 the user acknowledges that Gaussian, Inc. is engaged in the
 business of creating and licensing software in the field of
 computational chemistry and represents and warrants to the
 licensee that it is not a competitor of Gaussian, Inc. and that
 it will not use this program in any manner prohibited above.
 ---------------------------------------------------------------
  

 Cite this work as:
 Gaussian 16, Revision C.01,
 M. J. Frisch, G. W. Trucks, H. B. Schlegel, G. E. Scuseria, 
 M. A. Robb, J. R. Cheeseman, G. Scalmani, V. Barone, 
 G. A. Petersson, H. Nakatsuji, X. Li, M. Caricato, A. V. Marenich, 
 J. Bloino, B. G. Janesko, R. Gomperts, B. Mennucci, H. P. Hratchian, 
 J. V. Ortiz, A. F. Izmaylov, J. L. Sonnenberg, D. Williams-Young, 
 F. Ding, F. Lipparini, F. Egidi, J. Goings, B. Peng, A. Petrone, 
 T. Henderson, D. Ranasinghe, V. G. Zakrzewski, J. Gao, N. Rega, 
 G. Zheng, W. Liang, M. Hada, M. Ehara, K. Toyota, R. Fukuda, 
 J. Hasegawa, M. Ishida, T. Nakajima, Y. Honda, O. Kitao, H. Nakai, 
 T. Vreven, K. Throssell, J. A. Montgomery, Jr., J. E. Peralta, 
 F. Ogliaro, M. J. Bearpark, J. J. Heyd, E. N. Brothers, K. N. Kudin, 
 V. N. Staroverov, T. A. Keith, R. Kobayashi, J. Normand, 
 K. Raghavachari, A. P. Rendell, J. C. Burant, S. S. Iyengar, 
 J. Tomasi, M. Cossi, J. M. Millam, M. Klene, C. Adamo, R. Cammi, 
 J. W. Ochterski, R. L. Martin, K. Morokuma, O. Farkas, 
 J. B. Foresman, and D. J. Fox, Gaussian, Inc., Wallingford CT, 2019.
 
 ******************************************
 Gaussian 16:  ES64L-G16RevC.01  3-Jul-2019
                23-Sep-2021 
 ******************************************
 %mem=15GB
 %chk=HHbz.chk
 %nprocshared=8
 Will use up to    8 processors via shared memory.
 ----------------------------------------------------
 # opt freq b3lyp/6-31g(d) scrf=(smd,solvent=toluene)
 ----------------------------------------------------
 1/18=20,19=15,26=3,38=1/1,3;
 2/9=110,12=2,17=6,18=5,40=1/2;
 3/5=1,6=6,7=1,11=2,25=1,30=1,70=32201,71=1,72=13,74=-5/1,2,3;
 4//1;
 5/5=2,38=5,53=13/2;
 6/7=2,8=2,9=2,10=2,28=1/1;
 7//1,2,3,16;
 1/18=20,19=15,26=3/3(2);
 2/9=110/2;
 99//99;
 2/9=110/2;
 3/5=1,6=6,7=1,11=2,25=1,30=1,70=32205,71=1,72=13,74=-5/1,2,3;
 4/5=5,16=3,69=1/1;
 5/5=2,38=5,53=13/2;
 7//1,2,3,16;
 1/18=20,19=15,26=3/3(-5);
 2/9=110/2;
 6/7=2,8=2,9=2,10=2,19=2,28=1/1;
 99/9=1/99;
 ----
 HHbz
 ----
 Symbolic Z-matrix:
 Charge =  0 Multiplicity = 1
 C                     0.94106  -1.42655   0.00039 
 C                     2.33622  -1.42655   0.00039 
 C                     3.03376  -0.2188    0.00039 
 C                     2.33611   0.98971  -0.00081 
 C                     0.94128   0.98964  -0.00129 
 C                     0.24368  -0.21857  -0.00029 
 H                     0.3913   -2.37886   0.00084 
 H                     2.88573  -2.37906   0.0017 
 H                     0.39116   1.94192  -0.00224 
 H                    -0.85592  -0.21839  -0.00047 
 O                     4.46376  -0.21869   0.00121 
 H                     4.78474  -0.21981  -0.90354 
 C                     3.10661   2.3231   -0.00089 
 H                     3.74732   2.36485   0.85505 
 H                     3.69575   2.39454  -0.89124 
 H                     2.41211   3.13636   0.03345 
 

 GradGradGradGradGradGradGradGradGradGradGradGradGradGradGradGradGradGrad
 Berny optimization.
 Initialization pass.
                           ----------------------------
                           !    Initial Parameters    !
                           ! (Angstroms and Degrees)  !
 --------------------------                            --------------------------
 ! Name  Definition              Value          Derivative Info.                !
 --------------------------------------------------------------------------------
 ! R1    R(1,2)                  1.3952         estimate D2E/DX2                !
 ! R2    R(1,6)                  1.3948         estimate D2E/DX2                !
 ! R3    R(1,7)                  1.0996         estimate D2E/DX2                !
 ! R4    R(2,3)                  1.3947         estimate D2E/DX2                !
 ! R5    R(2,8)                  1.0997         estimate D2E/DX2                !
 ! R6    R(3,4)                  1.3954         estimate D2E/DX2                !
 ! R7    R(3,11)                 1.43           estimate D2E/DX2                !
 ! R8    R(4,5)                  1.3948         estimate D2E/DX2                !
 ! R9    R(4,13)                 1.54           estimate D2E/DX2                !
 ! R10   R(5,6)                  1.3951         estimate D2E/DX2                !
 ! R11   R(5,9)                  1.0998         estimate D2E/DX2                !
 ! R12   R(6,10)                 1.0996         estimate D2E/DX2                !
 ! R13   R(11,12)                0.96           estimate D2E/DX2                !
 ! R14   R(13,14)                1.07           estimate D2E/DX2                !
 ! R15   R(13,15)                1.07           estimate D2E/DX2                !
 ! R16   R(13,16)                1.07           estimate D2E/DX2                !
 ! A1    A(2,1,6)              119.9985         estimate D2E/DX2                !
 ! A2    A(2,1,7)              119.9972         estimate D2E/DX2                !
 ! A3    A(6,1,7)              120.0043         estimate D2E/DX2                !
 ! A4    A(1,2,3)              120.0086         estimate D2E/DX2                !
 ! A5    A(1,2,8)              119.9808         estimate D2E/DX2                !
 ! A6    A(3,2,8)              120.0106         estimate D2E/DX2                !
 ! A7    A(2,3,4)              119.9942         estimate D2E/DX2                !
 ! A8    A(2,3,11)             120.0128         estimate D2E/DX2                !
 ! A9    A(4,3,11)             119.993          estimate D2E/DX2                !
 ! A10   A(3,4,5)              119.994          estimate D2E/DX2                !
 ! A11   A(3,4,13)             119.9811         estimate D2E/DX2                !
 ! A12   A(5,4,13)             120.0249         estimate D2E/DX2                !
 ! A13   A(4,5,6)              120.0047         estimate D2E/DX2                !
 ! A14   A(4,5,9)              120.0113         estimate D2E/DX2                !
 ! A15   A(6,5,9)              119.984          estimate D2E/DX2                !
 ! A16   A(1,6,5)              120.0            estimate D2E/DX2                !
 ! A17   A(1,6,10)             120.008          estimate D2E/DX2                !
 ! A18   A(5,6,10)             119.992          estimate D2E/DX2                !
 ! A19   A(3,11,12)            109.5            estimate D2E/DX2                !
 ! A20   A(4,13,14)            109.4712         estimate D2E/DX2                !
 ! A21   A(4,13,15)            109.4712         estimate D2E/DX2                !
 ! A22   A(4,13,16)            109.4712         estimate D2E/DX2                !
 ! A23   A(14,13,15)           109.4713         estimate D2E/DX2                !
 ! A24   A(14,13,16)           109.4712         estimate D2E/DX2                !
 ! A25   A(15,13,16)           109.4712         estimate D2E/DX2                !
 ! D1    D(6,1,2,3)              0.0323         estimate D2E/DX2                !
 ! D2    D(6,1,2,8)            179.9532         estimate D2E/DX2                !
 ! D3    D(7,1,2,3)           -179.9729         estimate D2E/DX2                !
 ! D4    D(7,1,2,8)             -0.052          estimate D2E/DX2                !
 ! D5    D(2,1,6,5)              0.0149         estimate D2E/DX2                !
 ! D6    D(2,1,6,10)           179.9892         estimate D2E/DX2                !
 ! D7    D(7,1,6,5)           -179.9798         estimate D2E/DX2                !
 ! D8    D(7,1,6,10)            -0.0056         estimate D2E/DX2                !
 ! D9    D(1,2,3,4)             -0.0568         estimate D2E/DX2                !
 ! D10   D(1,2,3,11)           179.9619         estimate D2E/DX2                !
 ! D11   D(8,2,3,4)           -179.9777         estimate D2E/DX2                !
 ! D12   D(8,2,3,11)             0.041          estimate D2E/DX2                !
 ! D13   D(2,3,4,5)              0.0341         estimate D2E/DX2                !
 ! D14   D(2,3,4,13)          -179.9964         estimate D2E/DX2                !
 ! D15   D(11,3,4,5)          -179.9846         estimate D2E/DX2                !
 ! D16   D(11,3,4,13)           -0.0151         estimate D2E/DX2                !
 ! D17   D(2,3,11,12)           89.947          estimate D2E/DX2                !
 ! D18   D(4,3,11,12)          -90.0343         estimate D2E/DX2                !
 ! D19   D(3,4,5,6)              0.0131         estimate D2E/DX2                !
 ! D20   D(3,4,5,9)           -179.9995         estimate D2E/DX2                !
 ! D21   D(13,4,5,6)          -179.9563         estimate D2E/DX2                !
 ! D22   D(13,4,5,9)             0.0311         estimate D2E/DX2                !
 ! D23   D(3,4,13,14)          -57.9932         estimate D2E/DX2                !
 ! D24   D(3,4,13,15)           62.0069         estimate D2E/DX2                !
 ! D25   D(3,4,13,16)         -177.9932         estimate D2E/DX2                !
 ! D26   D(5,4,13,14)          121.9763         estimate D2E/DX2                !
 ! D27   D(5,4,13,15)         -118.0237         estimate D2E/DX2                !
 ! D28   D(5,4,13,16)            1.9763         estimate D2E/DX2                !
 ! D29   D(4,5,6,1)             -0.0376         estimate D2E/DX2                !
 ! D30   D(4,5,6,10)           179.9881         estimate D2E/DX2                !
 ! D31   D(9,5,6,1)            179.975          estimate D2E/DX2                !
 ! D32   D(9,5,6,10)             0.0007         estimate D2E/DX2                !
 --------------------------------------------------------------------------------
 Trust Radius=3.00D-01 FncErr=1.00D-07 GrdErr=1.00D-06 EigMax=2.50D+02 EigMin=1.00D-04
 Number of steps in this run=     83 maximum allowed number of steps=    100.
 GradGradGradGradGradGradGradGradGradGradGradGradGradGradGradGradGradGrad

                          Input orientation:                          
 ---------------------------------------------------------------------
 Center     Atomic      Atomic             Coordinates (Angstroms)
 Number     Number       Type             X           Y           Z
 ---------------------------------------------------------------------
      1          6           0        0.941062   -1.426546    0.000388
      2          6           0        2.336222   -1.426546    0.000388
      3          6           0        3.033760   -0.218795    0.000388
      4          6           0        2.336106    0.989714   -0.000811
      5          6           0        0.941281    0.989636   -0.001290
      6          6           0        0.243680   -0.218570   -0.000294
      7          1           0        0.391303   -2.378863    0.000838
      8          1           0        2.885730   -2.379059    0.001703
      9          1           0        0.391159    1.941917   -0.002243
     10          1           0       -0.855924   -0.218387   -0.000474
     11          8           0        4.463760   -0.218691    0.001212
     12          1           0        4.784736   -0.219806   -0.903538
     13          6           0        3.106610    2.323102   -0.000894
     14          1           0        3.747323    2.364849    0.855053
     15          1           0        3.695750    2.394542   -0.891237
     16          1           0        2.412107    3.136359    0.033446
 ---------------------------------------------------------------------
                    Distance matrix (angstroms):
                    1          2          3          4          5
     1  C    0.000000
     2  C    1.395160   0.000000
     3  C    2.416205   1.394712   0.000000
     4  C    2.790065   2.416260   1.395427   0.000000
     5  C    2.416183   2.789946   2.416356   1.394825   0.000000
     6  C    1.394829   2.416183   2.790080   2.416236   1.395138
     7  H    1.099610   2.165553   3.412986   3.889675   3.413102
     8  H    2.165414   1.099655   2.165330   3.413316   3.889601
     9  H    3.413055   3.889707   3.413506   2.165528   1.099761
    10  H    2.165365   3.413128   3.889684   3.412999   2.165471
    11  O    3.724019   2.446494   1.430000   2.446867   3.723965
    12  H    4.128817   2.875504   1.970533   2.876394   4.129037
    13  C    4.330065   3.827971   2.542941   1.540000   2.542987
    14  H    4.793770   4.134771   2.813333   2.148263   3.240124
    15  H    4.794165   4.152593   2.839500   2.148263   3.217587
    16  H    4.794285   4.563656   3.412419   2.148263   2.602490
                    6          7          8          9         10
     6  C    0.000000
     7  H    2.165331   0.000000
     8  H    3.412938   2.494427   0.000000
     9  H    2.165516   4.320781   4.989362   0.000000
    10  H    1.099604   2.494641   4.320704   2.494420   0.000000
    11  O    4.220080   4.609908   2.675326   4.610240   5.319684
    12  H    4.630015   4.978120   3.014641   4.978845   5.712493
    13  C    3.828376   5.429675   4.707347   2.742076   4.707530
    14  H    4.436348   5.873275   4.896449   3.489651   5.347422
    15  H    4.420285   5.873718   4.923489   3.451884   5.323401
    16  H    3.994842   5.873873   5.535807   2.347807   4.683535
                   11         12         13         14         15
    11  O    0.000000
    12  H    0.960000   0.000000
    13  C    2.881418   3.177618   0.000000
    14  H    2.813717   3.293829   1.070000   0.000000
    15  H    2.866233   2.832113   1.070000   1.747303   0.000000
    16  H    3.932770   4.215584   1.070000   1.747303   1.747303
                   16
    16  H    0.000000
 Stoichiometry    C7H8O
 Framework group  C1[X(C7H8O)]
 Deg. of freedom    42
 Full point group                 C1      NOp   1
 Largest Abelian subgroup         C1      NOp   1
 Largest concise Abelian subgroup C1      NOp   1
                         Standard orientation:                         
 ---------------------------------------------------------------------
 Center     Atomic      Atomic             Coordinates (Angstroms)
 Number     Number       Type             X           Y           Z
 ---------------------------------------------------------------------
      1          6           0        1.977080   -0.563847   -0.000046
      2          6           0        0.825391   -1.350791   -0.028374
      3          6           0       -0.431916   -0.747165   -0.034394
      4          6           0       -0.537951    0.644029   -0.010880
      5          6           0        0.613500    1.430711    0.017919
      6          6           0        1.871128    0.826762    0.022941
      7          1           0        2.968269   -1.039944    0.004245
      8          1           0        0.909269   -2.447080   -0.047269
      9          1           0        0.530264    2.527161    0.036463
     10          1           0        2.778734    1.447145    0.045449
     11          8           0       -1.612413   -1.553660   -0.064253
     12          1           0       -1.888471   -1.751031    0.833766
     13          6           0       -1.926384    1.310219   -0.017451
     14          1           0       -2.467750    0.997859   -0.885930
     15          1           0       -2.464563    1.021735    0.861207
     16          1           0       -1.811531    2.373934   -0.032197
 ---------------------------------------------------------------------
 Rotational constants (GHZ):           3.2058639           2.1675217           1.3087749
 Standard basis: 6-31G(d) (6D, 7F)
 There are   136 symmetry adapted cartesian basis functions of A   symmetry.
 There are   136 symmetry adapted basis functions of A   symmetry.
   136 basis functions,   256 primitive gaussians,   136 cartesian basis functions
    29 alpha electrons       29 beta electrons
       nuclear repulsion energy       345.6526914683 Hartrees.
 NAtoms=   16 NActive=   16 NUniq=   16 SFac= 1.00D+00 NAtFMM=   60 NAOKFM=F Big=F
 Integral buffers will be    131072 words long.
 Raffenetti 2 integral format.
 Two-electron integral symmetry is turned on.
 ------------------------------------------------------------------------------
 Polarizable Continuum Model (PCM)
 =================================
 Model                : PCM.
 Atomic radii         : SMD-Coulomb.
 Polarization charges : Total charges.
 Charge compensation  : None.
 Solution method      : On-the-fly selection.
 Cavity type          : VdW (van der Waals Surface) (Alpha=1.000).
 Cavity algorithm     : GePol (No added spheres)
                        Default sphere list used, NSphG=   16.
                        Lebedev-Laikov grids with approx.  5.0 points / Ang**2.
                        Smoothing algorithm: York/Karplus (Gamma=1.0000).
                        Polarization charges: spherical gaussians, with
                                              point-specific exponents (IZeta= 3).
                        Self-potential: point-specific (ISelfS= 7).
                        Self-field    : sphere-specific E.n sum rule (ISelfD= 2).
 1st derivatives      : Analytical E(r).r(x)/FMM algorithm (CHGder, D1EAlg=3).
                        Cavity 1st derivative terms included.
 Solvent              : Toluene, Eps=   2.374100 Eps(inf)=   2.238315
 ------------------------------------------------------------------------------
 Spheres list:
 ISph  on   Nord     Re0    Alpha      Xe            Ye            Ze
    1   C      1    1.8500  1.000      1.977080     -0.563847     -0.000046
    2   C      2    1.8500  1.000      0.825391     -1.350791     -0.028374
    3   C      3    1.8500  1.000     -0.431916     -0.747165     -0.034394
    4   C      4    1.8500  1.000     -0.537951      0.644029     -0.010880
    5   C      5    1.8500  1.000      0.613500      1.430711      0.017919
    6   C      6    1.8500  1.000      1.871128      0.826762      0.022941
    7   H      7    1.2000  1.000      2.968269     -1.039944      0.004245
    8   H      8    1.2000  1.000      0.909269     -2.447080     -0.047269
    9   H      9    1.2000  1.000      0.530264      2.527161      0.036463
   10   H     10    1.2000  1.000      2.778734      1.447145      0.045449
   11   O     11    2.2940  1.000     -1.612413     -1.553660     -0.064253
   12   H     12    1.2000  1.000     -1.888471     -1.751031      0.833766
   13   C     13    1.8500  1.000     -1.926384      1.310219     -0.017451
   14   H     14    1.2000  1.000     -2.467750      0.997859     -0.885930
   15   H     15    1.2000  1.000     -2.464563      1.021735      0.861207
   16   H     16    1.2000  1.000     -1.811531      2.373934     -0.032197
 ------------------------------------------------------------------------------
 ------------------------------------------------------------------------------
 Atomic radii for non-electrostatic terms: SMD-CDS.
 ------------------------------------------------------------------------------
 Nuclear repulsion after PCM non-electrostatic terms =      345.6468401554 Hartrees.
 One-electron integrals computed using PRISM.
 NBasis=   136 RedAO= T EigKep=  4.17D-04  NBF=   136
 NBsUse=   136 1.00D-06 EigRej= -1.00D+00 NBFU=   136
 ExpMin= 1.61D-01 ExpMax= 5.48D+03 ExpMxC= 8.25D+02 IAcc=3 IRadAn=         5 AccDes= 0.00D+00
 Harris functional with IExCor=  402 and IRadAn=       5 diagonalized for initial guess.
 HarFok:  IExCor=  402 AccDes= 0.00D+00 IRadAn=         5 IDoV= 1 UseB2=F ITyADJ=14
 ICtDFT=  3500011 ScaDFX=  1.000000  1.000000  1.000000  1.000000
 FoFCou: FMM=F IPFlag=           0 FMFlag=      100000 FMFlg1=           0
         NFxFlg=           0 DoJE=T BraDBF=F KetDBF=T FulRan=T
         wScrn=  0.000000 ICntrl=       500 IOpCl=  0 I1Cent=   200000004 NGrid=           0
         NMat0=    1 NMatS0=      1 NMatT0=    0 NMatD0=    1 NMtDS0=    0 NMtDT0=    0
 Petite list used in FoFCou.
 Requested convergence on RMS density matrix=1.00D-08 within 128 cycles.
 Requested convergence on MAX density matrix=1.00D-06.
 Requested convergence on             energy=1.00D-06.
 No special actions if energy rises.
 Inv3:  Mode=1 IEnd=     5211372.
 Iteration    1 A*A^-1 deviation from unit magnitude is 3.11D-15 for   1296.
 Iteration    1 A*A^-1 deviation from orthogonality  is 1.30D-15 for   1273    461.
 Iteration    1 A^-1*A deviation from unit magnitude is 3.11D-15 for   1296.
 Iteration    1 A^-1*A deviation from orthogonality  is 2.07D-15 for    903    221.
 Error on total polarization charges =  0.01726
 SCF Done:  E(RB3LYP) =  -346.782188448     A.U. after   12 cycles
            NFock= 12  Conv=0.82D-08     -V/T= 2.0097
 SMD-CDS (non-electrostatic) energy       (kcal/mol) =      -3.67
 (included in total energy above)

 **********************************************************************

            Population analysis using the SCF Density.

 **********************************************************************

 Orbital symmetries:
       Occupied  (A) (A) (A) (A) (A) (A) (A) (A) (A) (A) (A) (A)
                 (A) (A) (A) (A) (A) (A) (A) (A) (A) (A) (A) (A)
                 (A) (A) (A) (A) (A)
       Virtual   (A) (A) (A) (A) (A) (A) (A) (A) (A) (A) (A) (A)
                 (A) (A) (A) (A) (A) (A) (A) (A) (A) (A) (A) (A)
                 (A) (A) (A) (A) (A) (A) (A) (A) (A) (A) (A) (A)
                 (A) (A) (A) (A) (A) (A) (A) (A) (A) (A) (A) (A)
                 (A) (A) (A) (A) (A) (A) (A) (A) (A) (A) (A) (A)
                 (A) (A) (A) (A) (A) (A) (A) (A) (A) (A) (A) (A)
                 (A) (A) (A) (A) (A) (A) (A) (A) (A) (A) (A) (A)
                 (A) (A) (A) (A) (A) (A) (A) (A) (A) (A) (A) (A)
                 (A) (A) (A) (A) (A) (A) (A) (A) (A) (A) (A)
 The electronic state is 1-A.
 Alpha  occ. eigenvalues --  -19.15521 -10.23649 -10.19209 -10.18636 -10.18549
 Alpha  occ. eigenvalues --  -10.18521 -10.18435 -10.16984  -1.02253  -0.84724
 Alpha  occ. eigenvalues --   -0.76363  -0.73285  -0.68015  -0.60125  -0.58134
 Alpha  occ. eigenvalues --   -0.52481  -0.47616  -0.46338  -0.43459  -0.42044
 Alpha  occ. eigenvalues --   -0.40176  -0.39258  -0.38534  -0.34979  -0.34272
 Alpha  occ. eigenvalues --   -0.33746  -0.28638  -0.24385  -0.23442
 Alpha virt. eigenvalues --    0.00475   0.00815   0.07756   0.10100   0.13605
 Alpha virt. eigenvalues --    0.15301   0.15958   0.17386   0.18263   0.19667
 Alpha virt. eigenvalues --    0.20992   0.22945   0.24959   0.31207   0.32814
 Alpha virt. eigenvalues --    0.36236   0.36482   0.49737   0.50761   0.52022
 Alpha virt. eigenvalues --    0.54660   0.55332   0.55535   0.59640   0.60095
 Alpha virt. eigenvalues --    0.60494   0.61580   0.61930   0.63438   0.64932
 Alpha virt. eigenvalues --    0.67561   0.69693   0.71502   0.76147   0.78946
 Alpha virt. eigenvalues --    0.81318   0.83225   0.84345   0.85109   0.87860
 Alpha virt. eigenvalues --    0.90870   0.92395   0.94110   0.94626   0.96206
 Alpha virt. eigenvalues --    0.98512   1.02777   1.05851   1.07297   1.10607
 Alpha virt. eigenvalues --    1.13870   1.15342   1.19555   1.24508   1.25532
 Alpha virt. eigenvalues --    1.32100   1.37543   1.39495   1.45044   1.45256
 Alpha virt. eigenvalues --    1.48539   1.49956   1.51045   1.68351   1.75245
 Alpha virt. eigenvalues --    1.78235   1.79325   1.83163   1.86099   1.88081
 Alpha virt. eigenvalues --    1.90433   1.91411   1.97010   1.97916   1.99915
 Alpha virt. eigenvalues --    2.07762   2.10951   2.17494   2.18214   2.23478
 Alpha virt. eigenvalues --    2.27271   2.29410   2.31005   2.31819   2.34308
 Alpha virt. eigenvalues --    2.36804   2.43593   2.52942   2.54004   2.60737
 Alpha virt. eigenvalues --    2.66799   2.69895   2.73087   2.76156   2.80177
 Alpha virt. eigenvalues --    2.82948   2.99572   3.12093   3.41728   3.92281
 Alpha virt. eigenvalues --    4.09204   4.11872   4.16429   4.28266   4.39945
 Alpha virt. eigenvalues --    4.40323   4.74772
          Condensed to atoms (all electrons):
               1          2          3          4          5          6
     1  C    4.903075   0.500948  -0.017336  -0.029172  -0.033585   0.544086
     2  C    0.500948   5.047639   0.504965  -0.071363  -0.049215  -0.028523
     3  C   -0.017336   0.504965   4.673173   0.488411  -0.008120  -0.047452
     4  C   -0.029172  -0.071363   0.488411   4.808774   0.546660  -0.028156
     5  C   -0.033585  -0.049215  -0.008120   0.546660   4.965940   0.516146
     6  C    0.544086  -0.028523  -0.047452  -0.028156   0.516146   4.900436
     7  H    0.358051  -0.036805   0.003379   0.000566   0.004452  -0.040602
     8  H   -0.039955   0.344687  -0.035201   0.005667   0.000497   0.004596
     9  H    0.004658   0.000177   0.004593  -0.037359   0.356178  -0.044971
    10  H   -0.040839   0.004259   0.000930   0.003639  -0.038022   0.356423
    11  O    0.003916  -0.058202   0.268917  -0.073130   0.003623   0.000015
    12  H   -0.000102  -0.001963  -0.022302  -0.000901  -0.000029   0.000013
    13  C   -0.000067   0.008643  -0.059400   0.343463  -0.060491   0.007621
    14  H    0.000015   0.000050  -0.004318  -0.026240   0.000805  -0.000184
    15  H    0.000030  -0.000096  -0.004072  -0.025922   0.001342  -0.000211
    16  H   -0.000000  -0.000155   0.004468  -0.030804  -0.002177   0.000166
               7          8          9         10         11         12
     1  C    0.358051  -0.039955   0.004658  -0.040839   0.003916  -0.000102
     2  C   -0.036805   0.344687   0.000177   0.004259  -0.058202  -0.001963
     3  C    0.003379  -0.035201   0.004593   0.000930   0.268917  -0.022302
     4  C    0.000566   0.005667  -0.037359   0.003639  -0.073130  -0.000901
     5  C    0.004452   0.000497   0.356178  -0.038022   0.003623  -0.000029
     6  C   -0.040602   0.004596  -0.044971   0.356423   0.000015   0.000013
     7  H    0.579498  -0.005805  -0.000180  -0.005061  -0.000053   0.000003
     8  H   -0.005805   0.581113   0.000016  -0.000162   0.000027   0.000271
     9  H   -0.000180   0.000016   0.585519  -0.004822  -0.000050   0.000004
    10  H   -0.005061  -0.000162  -0.004822   0.585096   0.000002  -0.000000
    11  O   -0.000053   0.000027  -0.000050   0.000002   8.291559   0.240495
    12  H    0.000003   0.000271   0.000004  -0.000000   0.240495   0.365843
    13  C    0.000007  -0.000171  -0.010687  -0.000177   0.000022   0.000008
    14  H   -0.000000   0.000002   0.000174   0.000003   0.003128  -0.000517
    15  H   -0.000000  -0.000002   0.000189   0.000003   0.002652   0.001593
    16  H    0.000000   0.000002   0.006267  -0.000009   0.000489  -0.000031
              13         14         15         16
     1  C   -0.000067   0.000015   0.000030  -0.000000
     2  C    0.008643   0.000050  -0.000096  -0.000155
     3  C   -0.059400  -0.004318  -0.004072   0.004468
     4  C    0.343463  -0.026240  -0.025922  -0.030804
     5  C   -0.060491   0.000805   0.001342  -0.002177
     6  C    0.007621  -0.000184  -0.000211   0.000166
     7  H    0.000007  -0.000000  -0.000000   0.000000
     8  H   -0.000171   0.000002  -0.000002   0.000002
     9  H   -0.010687   0.000174   0.000189   0.006267
    10  H   -0.000177   0.000003   0.000003  -0.000009
    11  O    0.000022   0.003128   0.002652   0.000489
    12  H    0.000008  -0.000517   0.001593  -0.000031
    13  C    5.179638   0.372633   0.365911   0.363526
    14  H    0.372633   0.532642  -0.029570  -0.027268
    15  H    0.365911  -0.029570   0.555970  -0.028380
    16  H    0.363526  -0.027268  -0.028380   0.555896
 Mulliken charges:
               1
     1  C   -0.153725
     2  C   -0.165045
     3  C    0.249366
     4  C    0.125868
     5  C   -0.204006
     6  C   -0.139402
     7  H    0.142549
     8  H    0.144418
     9  H    0.140295
    10  H    0.138738
    11  O   -0.683410
    12  H    0.417615
    13  C   -0.510480
    14  H    0.178645
    15  H    0.160563
    16  H    0.158011
 Sum of Mulliken charges =  -0.00000
 Mulliken charges with hydrogens summed into heavy atoms:
               1
     1  C   -0.011176
     2  C   -0.020627
     3  C    0.249366
     4  C    0.125868
     5  C   -0.063711
     6  C   -0.000664
    11  O   -0.265795
    13  C   -0.013261
 Electronic spatial extent (au):  <R**2>=            909.4308
 Charge=             -0.0000 electrons
 Dipole moment (field-independent basis, Debye):
    X=              0.1453    Y=              0.4545    Z=              1.5933  Tot=              1.6632
 Quadrupole moment (field-independent basis, Debye-Ang):
   XX=            -43.3111   YY=            -43.2177   ZZ=            -48.0984
   XY=             -0.8301   XZ=             -3.2424   YZ=             -3.0458
 Traceless Quadrupole moment (field-independent basis, Debye-Ang):
   XX=              1.5646   YY=              1.6580   ZZ=             -3.2227
   XY=             -0.8301   XZ=             -3.2424   YZ=             -3.0458
 Octapole moment (field-independent basis, Debye-Ang**2):
  XXX=             -0.0886  YYY=             -3.9699  ZZZ=              1.8007  XYY=              0.6127
  XXY=             -2.7229  XXZ=              6.7185  XZZ=             -9.9844  YZZ=             -5.1219
  YYZ=              5.7790  XYZ=              6.4232
 Hexadecapole moment (field-independent basis, Debye-Ang**3):
 XXXX=           -633.8867 YYYY=           -435.2569 ZZZZ=            -56.1710 XXXY=             16.0214
 XXXZ=            -13.1440 YYYX=             10.0705 YYYZ=            -11.1155 ZZZX=             -3.7090
 ZZZY=             -3.8171 XXYY=           -178.2168 XXZZ=           -120.4021 YYZZ=            -87.9220
 XXYZ=            -12.3166 YYXZ=            -11.2894 ZZXY=              8.0088
 N-N= 3.456468401554D+02 E-N=-1.497450122098D+03  KE= 3.434568090381D+02
 D1PCM: PCM CHGder 1st derivatives, ID1Alg=3 FixD1E=F DoIter=F DoCFld=F I1PDM=0.
 Calling FoFJK, ICntrl=      2127 FMM=F ISym2X=0 I1Cent= 0 IOpClX= 0 NMat=1 NMatS=1 NMatT=0.
 ***** Axes restored to original set *****
 -------------------------------------------------------------------
 Center     Atomic                   Forces (Hartrees/Bohr)
 Number     Number              X              Y              Z
 -------------------------------------------------------------------
      1        6          -0.005474838   -0.006461455    0.000743668
      2        6           0.006503442   -0.010941371    0.000654056
      3        6           0.017785665   -0.006406162   -0.007265856
      4        6           0.012381383    0.026766921    0.001284444
      5        6          -0.006255329   -0.001229337    0.000870596
      6        6          -0.011374067   -0.000265728   -0.000349617
      7        1           0.004833606    0.007051249    0.000028677
      8        1          -0.002551377    0.008442606   -0.000127600
      9        1           0.005215349   -0.006858780    0.000027649
     10        1           0.008183806   -0.000081819   -0.000015693
     11        8          -0.026561073    0.000002184    0.016187063
     12        1           0.000372080    0.000076688   -0.011341652
     13        6          -0.018868208   -0.031729735    0.000577747
     14        1           0.012641456    0.003143825    0.011949175
     15        1           0.012235270    0.004532048   -0.013276909
     16        1          -0.009067164    0.013958863    0.000054254
 -------------------------------------------------------------------
 Cartesian Forces:  Max     0.031729735 RMS     0.010581854

 GradGradGradGradGradGradGradGradGradGradGradGradGradGradGradGradGradGrad
 Berny optimization.
 FormGI is forming the generalized inverse of G from B-inverse, IUseBI=4.
 Internal  Forces:  Max     0.026185740 RMS     0.005861197
 Search for a local minimum.
 Step number   1 out of a maximum of   83
 All quantities printed in internal units (Hartrees-Bohrs-Radians)
 Mixed Optimization -- RFO/linear search
 Second derivative matrix not updated -- first step.
 ITU=  0
     Eigenvalues ---    0.00237   0.01295   0.01387   0.01998   0.02152
     Eigenvalues ---    0.02154   0.02155   0.02155   0.02155   0.02156
     Eigenvalues ---    0.02157   0.07243   0.07243   0.16000   0.16000
     Eigenvalues ---    0.16000   0.16000   0.16000   0.16000   0.16000
     Eigenvalues ---    0.16000   0.22000   0.22493   0.24487   0.25000
     Eigenvalues ---    0.25000   0.28519   0.33709   0.33720   0.33725
     Eigenvalues ---    0.33726   0.37230   0.37230   0.37230   0.40989
     Eigenvalues ---    0.42224   0.42380   0.46412   0.46453   0.46466
     Eigenvalues ---    0.46497   0.55473
 RFO step:  Lambda=-7.51235963D-03 EMin= 2.36824180D-03
 Linear search not attempted -- first point.
 Iteration  1 RMS(Cart)=  0.02464755 RMS(Int)=  0.00037784
 Iteration  2 RMS(Cart)=  0.00035888 RMS(Int)=  0.00015941
 Iteration  3 RMS(Cart)=  0.00000013 RMS(Int)=  0.00015941
 Variable       Old X    -DE/DX   Delta X   Delta X   Delta X     New X
                                 (Linear)    (Quad)   (Total)
    R1        2.63647   0.00055   0.00000   0.00098   0.00094   2.63741
    R2        2.63584   0.00058   0.00000   0.00105   0.00094   2.63678
    R3        2.07796  -0.00852   0.00000  -0.02472  -0.02472   2.05324
    R4        2.63562  -0.00068   0.00000  -0.00143  -0.00136   2.63426
    R5        2.07805  -0.00859   0.00000  -0.02491  -0.02491   2.05313
    R6        2.63697   0.00401   0.00000   0.00868   0.00879   2.64576
    R7        2.70231  -0.02619   0.00000  -0.06273  -0.06273   2.63957
    R8        2.63584   0.00433   0.00000   0.00933   0.00937   2.64521
    R9        2.91018  -0.01027   0.00000  -0.03509  -0.03509   2.87509
   R10        2.63643   0.00257   0.00000   0.00545   0.00538   2.64180
   R11        2.07825  -0.00855   0.00000  -0.02481  -0.02481   2.05344
   R12        2.07795  -0.00818   0.00000  -0.02374  -0.02374   2.05421
   R13        1.81414   0.01081   0.00000   0.01923   0.01923   1.83337
   R14        2.02201   0.01725   0.00000   0.04542   0.04542   2.06743
   R15        2.02201   0.01808   0.00000   0.04762   0.04762   2.06962
   R16        2.02201   0.01650   0.00000   0.04343   0.04343   2.06544
    A1        2.09437  -0.00058   0.00000  -0.00349  -0.00357   2.09080
    A2        2.09435  -0.00040   0.00000  -0.00235  -0.00231   2.09203
    A3        2.09447   0.00098   0.00000   0.00585   0.00589   2.10036
    A4        2.09455  -0.00104   0.00000  -0.00514  -0.00504   2.08951
    A5        2.09406   0.00261   0.00000   0.01502   0.01496   2.10902
    A6        2.09458  -0.00157   0.00000  -0.00989  -0.00996   2.08462
    A7        2.09429   0.00667   0.00000   0.02605   0.02582   2.12011
    A8        2.09462  -0.00320   0.00000  -0.01250  -0.01310   2.08152
    A9        2.09427  -0.00347   0.00000  -0.01353  -0.01413   2.08015
   A10        2.09429  -0.00918   0.00000  -0.03516  -0.03493   2.05936
   A11        2.09407   0.00200   0.00000   0.00754   0.00742   2.10149
   A12        2.09483   0.00717   0.00000   0.02762   0.02751   2.12234
   A13        2.09448   0.00444   0.00000   0.01970   0.01974   2.11422
   A14        2.09459  -0.00335   0.00000  -0.01658  -0.01660   2.07799
   A15        2.09411  -0.00109   0.00000  -0.00312  -0.00314   2.09097
   A16        2.09440  -0.00031   0.00000  -0.00195  -0.00206   2.09233
   A17        2.09453   0.00007   0.00000   0.00048   0.00052   2.09506
   A18        2.09426   0.00024   0.00000   0.00148   0.00152   2.09578
   A19        1.91114  -0.00624   0.00000  -0.03726  -0.03726   1.87387
   A20        1.91063   0.00356   0.00000   0.02074   0.02055   1.93118
   A21        1.91063   0.00470   0.00000   0.02683   0.02663   1.93726
   A22        1.91063   0.00178   0.00000   0.01238   0.01217   1.92280
   A23        1.91063  -0.00480   0.00000  -0.03219  -0.03237   1.87826
   A24        1.91063  -0.00220   0.00000  -0.01069  -0.01087   1.89976
   A25        1.91063  -0.00304   0.00000  -0.01707  -0.01727   1.89336
    D1        0.00056  -0.00003   0.00000  -0.00152  -0.00147  -0.00091
    D2        3.14078  -0.00025   0.00000  -0.00911  -0.00912   3.13166
    D3       -3.14112   0.00001   0.00000  -0.00007  -0.00003  -3.14115
    D4       -0.00091  -0.00022   0.00000  -0.00766  -0.00768  -0.00859
    D5        0.00026  -0.00019   0.00000  -0.00669  -0.00667  -0.00641
    D6        3.14140  -0.00000   0.00000   0.00010   0.00011   3.14151
    D7       -3.14124  -0.00022   0.00000  -0.00814  -0.00812   3.13383
    D8       -0.00010  -0.00004   0.00000  -0.00134  -0.00134  -0.00144
    D9       -0.00099   0.00022   0.00000   0.00906   0.00924   0.00824
   D10        3.14093  -0.00135   0.00000  -0.04832  -0.04842   3.09251
   D11       -3.14120   0.00045   0.00000   0.01663   0.01676  -3.12445
   D12        0.00072  -0.00113   0.00000  -0.04075  -0.04090  -0.04018
   D13        0.00060  -0.00021   0.00000  -0.00841  -0.00854  -0.00794
   D14       -3.14153  -0.00024   0.00000  -0.01000  -0.01010   3.13156
   D15       -3.14132   0.00137   0.00000   0.04896   0.04907  -3.09225
   D16       -0.00026   0.00133   0.00000   0.04737   0.04751   0.04725
   D17        1.56987   0.00087   0.00000   0.03253   0.03200   1.60187
   D18       -1.57140  -0.00071   0.00000  -0.02486  -0.02433  -1.59572
   D19        0.00023  -0.00000   0.00000   0.00022   0.00022   0.00045
   D20       -3.14158   0.00004   0.00000   0.00135   0.00135  -3.14023
   D21       -3.14083   0.00003   0.00000   0.00181   0.00181  -3.13902
   D22        0.00054   0.00007   0.00000   0.00295   0.00294   0.00348
   D23       -1.01217   0.00051   0.00000   0.00896   0.00898  -1.00319
   D24        1.08222  -0.00031   0.00000  -0.00133  -0.00132   1.08090
   D25       -3.10657  -0.00007   0.00000   0.00178   0.00180  -3.10477
   D26        2.12889   0.00047   0.00000   0.00736   0.00734   2.13623
   D27       -2.05990  -0.00035   0.00000  -0.00293  -0.00296  -2.06286
   D28        0.03449  -0.00011   0.00000   0.00017   0.00016   0.03465
   D29       -0.00066   0.00020   0.00000   0.00733   0.00733   0.00668
   D30        3.14138   0.00002   0.00000   0.00054   0.00055  -3.14125
   D31        3.14116   0.00017   0.00000   0.00620   0.00619  -3.13584
   D32        0.00001  -0.00002   0.00000  -0.00059  -0.00059  -0.00058
         Item               Value     Threshold  Converged?
 Maximum Force            0.026186     0.000450     NO 
 RMS     Force            0.005861     0.000300     NO 
 Maximum Displacement     0.090735     0.001800     NO 
 RMS     Displacement     0.024759     0.001200     NO 
 Predicted change in Energy=-3.883373D-03
 GradGradGradGradGradGradGradGradGradGradGradGradGradGradGradGradGradGrad

                          Input orientation:                          
 ---------------------------------------------------------------------
 Center     Atomic      Atomic             Coordinates (Angstroms)
 Number     Number       Type             X           Y           Z
 ---------------------------------------------------------------------
      1          6           0        0.938968   -1.437784   -0.002955
      2          6           0        2.334588   -1.431188   -0.010945
      3          6           0        3.019909   -0.217317   -0.019145
      4          6           0        2.339565    1.006309   -0.009738
      5          6           0        0.940055    0.979849   -0.001531
      6          6           0        0.239937   -0.230188   -0.002132
      7          1           0        0.402418   -2.382565    0.003858
      8          1           0        2.895986   -2.361339   -0.002442
      9          1           0        0.394412    1.919535    0.004537
     10          1           0       -0.847089   -0.230693    0.004001
     11          8           0        4.415745   -0.220935    0.032689
     12          1           0        4.739471   -0.218515   -0.881881
     13          6           0        3.112192    2.316951   -0.005844
     14          1           0        3.785794    2.365144    0.854887
     15          1           0        3.722211    2.415569   -0.910060
     16          1           0        2.420503    3.162019    0.039338
 ---------------------------------------------------------------------
                    Distance matrix (angstroms):
                    1          2          3          4          5
     1  C    0.000000
     2  C    1.395658   0.000000
     3  C    2.412492   1.393993   0.000000
     4  C    2.816968   2.437502   1.400077   0.000000
     5  C    2.417634   2.785302   2.399856   1.399784   0.000000
     6  C    1.395326   2.414548   2.780054   2.436682   1.397983
     7  H    1.086528   2.153745   3.397070   3.903484   3.405130
     8  H    2.163995   1.086472   2.147665   3.413314   3.871589
     9  H    3.401205   3.871934   3.385253   2.148909   1.086635
    10  H    2.155717   3.400658   3.867090   3.418351   2.158547
    11  O    3.683744   2.407869   1.396802   2.412146   3.677427
    12  H    4.086924   2.830648   1.923853   2.832026   4.080031
    13  C    4.338312   3.827955   2.535983   1.521431   2.550694
    14  H    4.827274   4.155454   2.831893   2.164622   3.278829
    15  H    4.839175   4.187057   2.866888   2.169863   3.259925
    16  H    4.832693   4.594286   3.432582   2.157787   2.637283
                    6          7          8          9         10
     6  C    0.000000
     7  H    2.158509   0.000000
     8  H    3.405349   2.493666   0.000000
     9  H    2.155277   4.302108   4.958206   0.000000
    10  H    1.087043   2.488337   4.307006   2.482903   0.000000
    11  O    4.175963   4.558538   2.625306   4.555604   5.262921
    12  H    4.584747   4.927238   2.960329   4.923062   5.656376
    13  C    3.838982   5.424797   4.683285   2.746703   4.708130
    14  H    4.476978   5.891708   4.885327   3.524647   5.378287
    15  H    4.466610   5.905791   4.932066   3.486659   5.358798
    16  H    4.032823   5.900537   5.543944   2.376978   4.710509
                   11         12         13         14         15
    11  O    0.000000
    12  H    0.970177   0.000000
    13  C    2.853349   3.137526   0.000000
    14  H    2.785795   3.255942   1.094038   0.000000
    15  H    2.884600   2.823829   1.095197   1.766811   0.000000
    16  H    3.927519   4.201698   1.092984   1.778805   1.775666
                   16
    16  H    0.000000
 Stoichiometry    C7H8O
 Framework group  C1[X(C7H8O)]
 Deg. of freedom    42
 Full point group                 C1      NOp   1
 Largest Abelian subgroup         C1      NOp   1
 Largest concise Abelian subgroup C1      NOp   1
                         Standard orientation:                         
 ---------------------------------------------------------------------
 Center     Atomic      Atomic             Coordinates (Angstroms)
 Number     Number       Type             X           Y           Z
 ---------------------------------------------------------------------
      1          6           0        1.994261   -0.514480   -0.000882
      2          6           0        0.862219   -1.330651   -0.015287
      3          6           0       -0.406399   -0.752888   -0.011481
      4          6           0       -0.576718    0.636767   -0.003278
      5          6           0        0.570164    1.439174    0.010864
      6          6           0        1.848399    0.873097    0.016116
      7          1           0        2.984203   -0.962304   -0.004224
      8          1           0        0.956093   -2.412824   -0.037885
      9          1           0        0.458085    2.519984    0.018692
     10          1           0        2.727400    1.512543    0.027452
     11          8           0       -1.532017   -1.576613   -0.085760
     12          1           0       -1.804055   -1.777871    0.823489
     13          6           0       -1.972755    1.241538   -0.012440
     14          1           0       -2.537180    0.895985   -0.883609
     15          1           0       -2.532734    0.949686    0.882380
     16          1           0       -1.910702    2.332362   -0.041889
 ---------------------------------------------------------------------
 Rotational constants (GHZ):           3.2378980           2.1776663           1.3180512
 Standard basis: 6-31G(d) (6D, 7F)
 There are   136 symmetry adapted cartesian basis functions of A   symmetry.
 There are   136 symmetry adapted basis functions of A   symmetry.
   136 basis functions,   256 primitive gaussians,   136 cartesian basis functions
    29 alpha electrons       29 beta electrons
       nuclear repulsion energy       346.6107313294 Hartrees.
 NAtoms=   16 NActive=   16 NUniq=   16 SFac= 1.00D+00 NAtFMM=   60 NAOKFM=F Big=F
 Integral buffers will be    131072 words long.
 Raffenetti 2 integral format.
 Two-electron integral symmetry is turned on.
 ------------------------------------------------------------------------------
 Polarizable Continuum Model (PCM)
 =================================
 Model                : PCM.
 Atomic radii         : SMD-Coulomb.
 Polarization charges : Total charges.
 Charge compensation  : None.
 Solution method      : On-the-fly selection.
 Cavity type          : VdW (van der Waals Surface) (Alpha=1.000).
 Cavity algorithm     : GePol (No added spheres)
                        Default sphere list used, NSphG=   16.
                        Lebedev-Laikov grids with approx.  5.0 points / Ang**2.
                        Smoothing algorithm: York/Karplus (Gamma=1.0000).
                        Polarization charges: spherical gaussians, with
                                              point-specific exponents (IZeta= 3).
                        Self-potential: point-specific (ISelfS= 7).
                        Self-field    : sphere-specific E.n sum rule (ISelfD= 2).
 1st derivatives      : Analytical E(r).r(x)/FMM algorithm (CHGder, D1EAlg=3).
                        Cavity 1st derivative terms included.
 Solvent              : Toluene, Eps=   2.374100 Eps(inf)=   2.238315
 ------------------------------------------------------------------------------
 Spheres list:
 ISph  on   Nord     Re0    Alpha      Xe            Ye            Ze
    1   C      1    1.8500  1.000      1.994261     -0.514480     -0.000882
    2   C      2    1.8500  1.000      0.862219     -1.330651     -0.015287
    3   C      3    1.8500  1.000     -0.406399     -0.752888     -0.011481
    4   C      4    1.8500  1.000     -0.576718      0.636767     -0.003278
    5   C      5    1.8500  1.000      0.570164      1.439174      0.010864
    6   C      6    1.8500  1.000      1.848399      0.873097      0.016116
    7   H      7    1.2000  1.000      2.984203     -0.962304     -0.004224
    8   H      8    1.2000  1.000      0.956093     -2.412824     -0.037885
    9   H      9    1.2000  1.000      0.458085      2.519984      0.018692
   10   H     10    1.2000  1.000      2.727400      1.512543      0.027452
   11   O     11    2.2940  1.000     -1.532017     -1.576613     -0.085760
   12   H     12    1.2000  1.000     -1.804055     -1.777871      0.823489
   13   C     13    1.8500  1.000     -1.972755      1.241538     -0.012440
   14   H     14    1.2000  1.000     -2.537180      0.895985     -0.883609
   15   H     15    1.2000  1.000     -2.532734      0.949686      0.882380
   16   H     16    1.2000  1.000     -1.910702      2.332362     -0.041889
 ------------------------------------------------------------------------------
 ------------------------------------------------------------------------------
 Atomic radii for non-electrostatic terms: SMD-CDS.
 ------------------------------------------------------------------------------
 Nuclear repulsion after PCM non-electrostatic terms =      346.6048029270 Hartrees.
 One-electron integrals computed using PRISM.
 NBasis=   136 RedAO= T EigKep=  4.22D-04  NBF=   136
 NBsUse=   136 1.00D-06 EigRej= -1.00D+00 NBFU=   136
 Initial guess from the checkpoint file:  "HHbz.chk"
 B after Tr=     0.000000    0.000000    0.000000
         Rot=    0.999886    0.000342   -0.000093   -0.015067 Ang=   1.73 deg.
 ExpMin= 1.61D-01 ExpMax= 5.48D+03 ExpMxC= 8.25D+02 IAcc=3 IRadAn=         5 AccDes= 0.00D+00
 Harris functional with IExCor=  402 and IRadAn=       5 diagonalized for initial guess.
 HarFok:  IExCor=  402 AccDes= 0.00D+00 IRadAn=         5 IDoV= 1 UseB2=F ITyADJ=14
 ICtDFT=  3500011 ScaDFX=  1.000000  1.000000  1.000000  1.000000
 FoFCou: FMM=F IPFlag=           0 FMFlag=      100000 FMFlg1=           0
         NFxFlg=           0 DoJE=T BraDBF=F KetDBF=T FulRan=T
         wScrn=  0.000000 ICntrl=       500 IOpCl=  0 I1Cent=   200000004 NGrid=           0
         NMat0=    1 NMatS0=      1 NMatT0=    0 NMatD0=    1 NMtDS0=    0 NMtDT0=    0
 Petite list used in FoFCou.
 Requested convergence on RMS density matrix=1.00D-08 within 128 cycles.
 Requested convergence on MAX density matrix=1.00D-06.
 Requested convergence on             energy=1.00D-06.
 No special actions if energy rises.
 Inv3:  Mode=1 IEnd=     5243052.
 Iteration    1 A*A^-1 deviation from unit magnitude is 3.55D-15 for   1290.
 Iteration    1 A*A^-1 deviation from orthogonality  is 1.47D-15 for   1322   1191.
 Iteration    1 A^-1*A deviation from unit magnitude is 3.55D-15 for   1290.
 Iteration    1 A^-1*A deviation from orthogonality  is 1.54D-15 for    865    631.
 Error on total polarization charges =  0.01754
 SCF Done:  E(RB3LYP) =  -346.786244821     A.U. after   11 cycles
            NFock= 11  Conv=0.44D-08     -V/T= 2.0096
 SMD-CDS (non-electrostatic) energy       (kcal/mol) =      -3.72
 (included in total energy above)
 D1PCM: PCM CHGder 1st derivatives, ID1Alg=3 FixD1E=F DoIter=F DoCFld=F I1PDM=0.
 Calling FoFJK, ICntrl=      2127 FMM=F ISym2X=0 I1Cent= 0 IOpClX= 0 NMat=1 NMatS=1 NMatT=0.
 ***** Axes restored to original set *****
 -------------------------------------------------------------------
 Center     Atomic                   Forces (Hartrees/Bohr)
 Number     Number              X              Y              Z
 -------------------------------------------------------------------
      1        6          -0.000450608    0.000116639   -0.000313041
      2        6          -0.001576249   -0.000654673    0.000288885
      3        6           0.005553982   -0.002463824    0.001883689
      4        6           0.001529810    0.008982056    0.000153799
      5        6          -0.000607334   -0.002891769   -0.000370239
      6        6          -0.000035428    0.000737888    0.000223475
      7        1          -0.000134856   -0.000188099   -0.000030442
      8        1           0.000854727    0.000626800   -0.000036618
      9        1          -0.000307242    0.000585063    0.000034533
     10        1           0.000137365    0.000394002    0.000082397
     11        8          -0.005004855   -0.000445373   -0.001056366
     12        1           0.002701090    0.000221091   -0.000754325
     13        6          -0.005887669   -0.008913518    0.000446734
     14        1           0.001323725    0.001118819    0.000021717
     15        1           0.001371278    0.001373197   -0.000395040
     16        1           0.000532265    0.001401701   -0.000179158
 -------------------------------------------------------------------
 Cartesian Forces:  Max     0.008982056 RMS     0.002482767

 GradGradGradGradGradGradGradGradGradGradGradGradGradGradGradGradGradGrad
 Berny optimization.
 Using GEDIIS/GDIIS optimizer.
 FormGI is forming the generalized inverse of G from B-inverse, IUseBI=4.
 Internal  Forces:  Max     0.005675728 RMS     0.001143160
 Search for a local minimum.
 Step number   2 out of a maximum of   83
 All quantities printed in internal units (Hartrees-Bohrs-Radians)
 Mixed Optimization -- RFO/linear search
 Update second derivatives using D2CorX and points    1    2
 DE= -4.06D-03 DEPred=-3.88D-03 R= 1.04D+00
 TightC=F SS=  1.41D+00  RLast= 1.84D-01 DXNew= 5.0454D-01 5.5316D-01
 Trust test= 1.04D+00 RLast= 1.84D-01 DXMaxT set to 5.05D-01
 ITU=  1  0
 Use linear search instead of GDIIS.
     Eigenvalues ---    0.00237   0.01294   0.01362   0.02054   0.02153
     Eigenvalues ---    0.02154   0.02155   0.02155   0.02156   0.02156
     Eigenvalues ---    0.02172   0.06990   0.07025   0.14851   0.15999
     Eigenvalues ---    0.16000   0.16000   0.16000   0.16000   0.16000
     Eigenvalues ---    0.16735   0.22001   0.22248   0.24577   0.24959
     Eigenvalues ---    0.24979   0.26985   0.33688   0.33722   0.33724
     Eigenvalues ---    0.34298   0.37175   0.37230   0.37503   0.40177
     Eigenvalues ---    0.42295   0.43051   0.46377   0.46457   0.46490
     Eigenvalues ---    0.46598   0.55222
 RFO step:  Lambda=-4.25722831D-04 EMin= 2.36829658D-03
 Quartic linear search produced a step of  0.08695.
 Iteration  1 RMS(Cart)=  0.00659180 RMS(Int)=  0.00010278
 Iteration  2 RMS(Cart)=  0.00009659 RMS(Int)=  0.00002569
 Iteration  3 RMS(Cart)=  0.00000002 RMS(Int)=  0.00002569
 Variable       Old X    -DE/DX   Delta X   Delta X   Delta X     New X
                                 (Linear)    (Quad)   (Total)
    R1        2.63741   0.00067   0.00008   0.00152   0.00160   2.63901
    R2        2.63678   0.00010   0.00008  -0.00005   0.00002   2.63680
    R3        2.05324   0.00023  -0.00215   0.00149  -0.00066   2.05258
    R4        2.63426   0.00072  -0.00012   0.00195   0.00184   2.63610
    R5        2.05313  -0.00010  -0.00217   0.00045  -0.00172   2.05141
    R6        2.64576   0.00328   0.00076   0.00767   0.00845   2.65421
    R7        2.63957  -0.00237  -0.00545  -0.00440  -0.00985   2.62972
    R8        2.64521   0.00074   0.00081   0.00148   0.00230   2.64751
    R9        2.87509  -0.00568  -0.00305  -0.02053  -0.02358   2.85151
   R10        2.64180  -0.00102   0.00047  -0.00277  -0.00231   2.63949
   R11        2.05344   0.00066  -0.00216   0.00288   0.00072   2.05416
   R12        2.05421  -0.00014  -0.00206   0.00028  -0.00179   2.05243
   R13        1.83337   0.00161   0.00167   0.00259   0.00426   1.83763
   R14        2.06743   0.00088   0.00395   0.00121   0.00516   2.07259
   R15        2.06962   0.00121   0.00414   0.00210   0.00624   2.07587
   R16        2.06544   0.00074   0.00378   0.00085   0.00463   2.07007
    A1        2.09080  -0.00008  -0.00031  -0.00105  -0.00137   2.08942
    A2        2.09203   0.00007  -0.00020   0.00082   0.00063   2.09266
    A3        2.10036   0.00002   0.00051   0.00022   0.00074   2.10109
    A4        2.08951   0.00063  -0.00044   0.00354   0.00311   2.09261
    A5        2.10902   0.00077   0.00130   0.00519   0.00648   2.11550
    A6        2.08462  -0.00140  -0.00087  -0.00870  -0.00957   2.07506
    A7        2.12011  -0.00092   0.00225  -0.00390  -0.00167   2.11844
    A8        2.08152   0.00021  -0.00114   0.00105  -0.00014   2.08138
    A9        2.08015   0.00071  -0.00123   0.00326   0.00198   2.08213
   A10        2.05936  -0.00082  -0.00304  -0.00208  -0.00509   2.05427
   A11        2.10149   0.00001   0.00065  -0.00037   0.00026   2.10175
   A12        2.12234   0.00081   0.00239   0.00245   0.00483   2.12717
   A13        2.11422   0.00106   0.00172   0.00403   0.00575   2.11997
   A14        2.07799  -0.00056  -0.00144  -0.00199  -0.00344   2.07455
   A15        2.09097  -0.00050  -0.00027  -0.00204  -0.00231   2.08866
   A16        2.09233   0.00012  -0.00018  -0.00051  -0.00070   2.09163
   A17        2.09506   0.00034   0.00005   0.00302   0.00307   2.09813
   A18        2.09578  -0.00047   0.00013  -0.00250  -0.00236   2.09342
   A19        1.87387   0.00420  -0.00324   0.02969   0.02645   1.90032
   A20        1.93118   0.00139   0.00179   0.00868   0.01040   1.94158
   A21        1.93726   0.00153   0.00232   0.00870   0.01095   1.94821
   A22        1.92280   0.00131   0.00106   0.00939   0.01036   1.93317
   A23        1.87826  -0.00178  -0.00281  -0.01269  -0.01555   1.86271
   A24        1.89976  -0.00117  -0.00095  -0.00605  -0.00708   1.89268
   A25        1.89336  -0.00145  -0.00150  -0.00913  -0.01071   1.88265
    D1       -0.00091  -0.00008  -0.00013  -0.00363  -0.00376  -0.00466
    D2        3.13166  -0.00002  -0.00079   0.00002  -0.00077   3.13089
    D3       -3.14115  -0.00002  -0.00000  -0.00088  -0.00089   3.14114
    D4       -0.00859   0.00004  -0.00067   0.00277   0.00210  -0.00648
    D5       -0.00641   0.00013  -0.00058   0.00676   0.00618  -0.00024
    D6        3.14151   0.00008   0.00001   0.00371   0.00371  -3.13797
    D7        3.13383   0.00007  -0.00071   0.00399   0.00329   3.13712
    D8       -0.00144   0.00002  -0.00012   0.00094   0.00082  -0.00061
    D9        0.00824  -0.00000   0.00080  -0.00040   0.00042   0.00866
   D10        3.09251   0.00011  -0.00421   0.00812   0.00390   3.09641
   D11       -3.12445  -0.00007   0.00146  -0.00407  -0.00259  -3.12703
   D12       -0.04018   0.00004  -0.00356   0.00446   0.00090  -0.03928
   D13       -0.00794   0.00002  -0.00074   0.00124   0.00050  -0.00745
   D14        3.13156   0.00007  -0.00088   0.00457   0.00368   3.13524
   D15       -3.09225  -0.00007   0.00427  -0.00721  -0.00292  -3.09517
   D16        0.04725  -0.00003   0.00413  -0.00388   0.00026   0.04751
   D17        1.60187   0.00017   0.00278   0.01171   0.01444   1.61632
   D18       -1.59572   0.00023  -0.00211   0.01980   0.01774  -1.57798
   D19        0.00045   0.00003   0.00002   0.00198   0.00199   0.00244
   D20       -3.14023  -0.00003   0.00012  -0.00109  -0.00098  -3.14121
   D21       -3.13902  -0.00001   0.00016  -0.00139  -0.00124  -3.14026
   D22        0.00348  -0.00007   0.00026  -0.00446  -0.00421  -0.00073
   D23       -1.00319   0.00020   0.00078   0.00517   0.00596  -0.99723
   D24        1.08090  -0.00013  -0.00011   0.00059   0.00046   1.08137
   D25       -3.10477  -0.00010   0.00016   0.00098   0.00112  -3.10364
   D26        2.13623   0.00024   0.00064   0.00862   0.00927   2.14550
   D27       -2.06286  -0.00009  -0.00026   0.00404   0.00377  -2.05908
   D28        0.03465  -0.00005   0.00001   0.00443   0.00443   0.03909
   D29        0.00668  -0.00011   0.00064  -0.00598  -0.00535   0.00133
   D30       -3.14125  -0.00006   0.00005  -0.00291  -0.00287   3.13906
   D31       -3.13584  -0.00005   0.00054  -0.00289  -0.00236  -3.13819
   D32       -0.00058   0.00001  -0.00005   0.00018   0.00012  -0.00045
         Item               Value     Threshold  Converged?
 Maximum Force            0.005676     0.000450     NO 
 RMS     Force            0.001143     0.000300     NO 
 Maximum Displacement     0.035906     0.001800     NO 
 RMS     Displacement     0.006614     0.001200     NO 
 Predicted change in Energy=-2.396638D-04
 GradGradGradGradGradGradGradGradGradGradGradGradGradGradGradGradGradGrad

                          Input orientation:                          
 ---------------------------------------------------------------------
 Center     Atomic      Atomic             Coordinates (Angstroms)
 Number     Number       Type             X           Y           Z
 ---------------------------------------------------------------------
      1          6           0        0.935132   -1.438875   -0.004656
      2          6           0        2.331607   -1.431657   -0.010329
      3          6           0        3.020652   -0.218769   -0.017063
      4          6           0        2.339342    1.009438   -0.007917
      5          6           0        0.938727    0.977211   -0.000973
      6          6           0        0.237240   -0.230617   -0.000112
      7          1           0        0.398565   -2.383256    0.000165
      8          1           0        2.898930   -2.357156   -0.004008
      9          1           0        0.392270    1.916861    0.005788
     10          1           0       -0.848823   -0.226777    0.007717
     11          8           0        4.411347   -0.226419    0.032173
     12          1           0        4.758471   -0.209787   -0.876042
     13          6           0        3.106559    2.308792   -0.007199
     14          1           0        3.791424    2.365448    0.847580
     15          1           0        3.720347    2.416997   -0.911777
     16          1           0        2.422872    3.163417    0.039289
 ---------------------------------------------------------------------
                    Distance matrix (angstroms):
                    1          2          3          4          5
     1  C    0.000000
     2  C    1.396504   0.000000
     3  C    2.416237   1.394964   0.000000
     4  C    2.822420   2.441109   1.404550   0.000000
     5  C    2.416092   2.782597   2.401049   1.401003   0.000000
     6  C    1.395336   2.414327   2.783489   2.440621   1.396758
     7  H    1.086178   2.154600   3.400093   3.908587   3.403603
     8  H    2.167888   1.085562   2.141888   3.412787   3.867869
     9  H    3.399378   3.869607   3.386714   2.148184   1.087015
    10  H    2.156810   3.401057   3.869562   3.419484   2.155225
    11  O    3.681776   2.404106   1.391588   2.412914   3.675447
    12  H    4.109488   2.851683   1.938541   2.844703   4.094528
    13  C    4.331294   3.819885   2.529040   1.508954   2.544139
    14  H    4.832968   4.157533   2.831939   2.163141   3.284072
    15  H    4.842317   4.189671   2.870078   2.169184   3.261895
    16  H    4.836982   4.596248   3.435069   2.156115   2.642689
                    6          7          8          9         10
     6  C    0.000000
     7  H    2.158676   0.000000
     8  H    3.406872   2.500504   0.000000
     9  H    2.153074   4.300125   4.954862   0.000000
    10  H    1.086097   2.491272   4.310951   2.476993   0.000000
    11  O    4.174234   4.555808   2.613189   4.554923   5.260226
    12  H    4.605347   4.949797   2.971453   4.935987   5.676536
    13  C    3.831663   5.417435   4.670567   2.742471   4.698338
    14  H    4.482227   5.897439   4.881059   3.530453   5.381161
    15  H    4.469120   5.908325   4.928622   3.488289   5.358388
    16  H    4.037079   5.904653   5.541231   2.382934   4.711518
                   11         12         13         14         15
    11  O    0.000000
    12  H    0.972433   0.000000
    13  C    2.851546   3.134795   0.000000
    14  H    2.786928   3.246211   1.096767   0.000000
    15  H    2.890704   2.824707   1.098501   1.761547   0.000000
    16  H    3.930022   4.203732   1.095433   1.778489   1.773446
                   16
    16  H    0.000000
 Stoichiometry    C7H8O
 Framework group  C1[X(C7H8O)]
 Deg. of freedom    42
 Full point group                 C1      NOp   1
 Largest Abelian subgroup         C1      NOp   1
 Largest concise Abelian subgroup C1      NOp   1
                         Standard orientation:                         
 ---------------------------------------------------------------------
 Center     Atomic      Atomic             Coordinates (Angstroms)
 Number     Number       Type             X           Y           Z
 ---------------------------------------------------------------------
      1          6           0        1.993843   -0.519307    0.001789
      2          6           0        0.858175   -1.331827   -0.015362
      3          6           0       -0.411020   -0.752979   -0.013490
      4          6           0       -0.578815    0.641486   -0.004981
      5          6           0        0.574879    1.436187    0.010835
      6          6           0        1.851129    0.868648    0.015065
      7          1           0        2.982112   -0.969980    0.000754
      8          1           0        0.941056   -2.414026   -0.035869
      9          1           0        0.466933    2.517806    0.017995
     10          1           0        2.728852    1.508266    0.025038
     11          8           0       -1.532734   -1.573397   -0.085527
     12          1           0       -1.832941   -1.775934    0.816959
     13          6           0       -1.961945    1.244687   -0.011382
     14          1           0       -2.541321    0.901148   -0.876947
     15          1           0       -2.531830    0.960137    0.883586
     16          1           0       -1.908475    2.338381   -0.042147
 ---------------------------------------------------------------------
 Rotational constants (GHZ):           3.2392371           2.1800564           1.3190011
 Standard basis: 6-31G(d) (6D, 7F)
 There are   136 symmetry adapted cartesian basis functions of A   symmetry.
 There are   136 symmetry adapted basis functions of A   symmetry.
   136 basis functions,   256 primitive gaussians,   136 cartesian basis functions
    29 alpha electrons       29 beta electrons
       nuclear repulsion energy       346.7075194067 Hartrees.
 NAtoms=   16 NActive=   16 NUniq=   16 SFac= 1.00D+00 NAtFMM=   60 NAOKFM=F Big=F
 Integral buffers will be    131072 words long.
 Raffenetti 2 integral format.
 Two-electron integral symmetry is turned on.
 ------------------------------------------------------------------------------
 Polarizable Continuum Model (PCM)
 =================================
 Model                : PCM.
 Atomic radii         : SMD-Coulomb.
 Polarization charges : Total charges.
 Charge compensation  : None.
 Solution method      : On-the-fly selection.
 Cavity type          : VdW (van der Waals Surface) (Alpha=1.000).
 Cavity algorithm     : GePol (No added spheres)
                        Default sphere list used, NSphG=   16.
                        Lebedev-Laikov grids with approx.  5.0 points / Ang**2.
                        Smoothing algorithm: York/Karplus (Gamma=1.0000).
                        Polarization charges: spherical gaussians, with
                                              point-specific exponents (IZeta= 3).
                        Self-potential: point-specific (ISelfS= 7).
                        Self-field    : sphere-specific E.n sum rule (ISelfD= 2).
 1st derivatives      : Analytical E(r).r(x)/FMM algorithm (CHGder, D1EAlg=3).
                        Cavity 1st derivative terms included.
 Solvent              : Toluene, Eps=   2.374100 Eps(inf)=   2.238315
 ------------------------------------------------------------------------------
 Spheres list:
 ISph  on   Nord     Re0    Alpha      Xe            Ye            Ze
    1   C      1    1.8500  1.000      1.993843     -0.519307      0.001789
    2   C      2    1.8500  1.000      0.858175     -1.331827     -0.015362
    3   C      3    1.8500  1.000     -0.411020     -0.752979     -0.013490
    4   C      4    1.8500  1.000     -0.578815      0.641486     -0.004981
    5   C      5    1.8500  1.000      0.574879      1.436187      0.010835
    6   C      6    1.8500  1.000      1.851129      0.868648      0.015065
    7   H      7    1.2000  1.000      2.982112     -0.969980      0.000754
    8   H      8    1.2000  1.000      0.941056     -2.414026     -0.035869
    9   H      9    1.2000  1.000      0.466933      2.517806      0.017995
   10   H     10    1.2000  1.000      2.728852      1.508266      0.025038
   11   O     11    2.2940  1.000     -1.532734     -1.573397     -0.085527
   12   H     12    1.2000  1.000     -1.832941     -1.775934      0.816959
   13   C     13    1.8500  1.000     -1.961945      1.244687     -0.011382
   14   H     14    1.2000  1.000     -2.541321      0.901148     -0.876947
   15   H     15    1.2000  1.000     -2.531830      0.960137      0.883586
   16   H     16    1.2000  1.000     -1.908475      2.338381     -0.042147
 ------------------------------------------------------------------------------
 ------------------------------------------------------------------------------
 Atomic radii for non-electrostatic terms: SMD-CDS.
 ------------------------------------------------------------------------------
 Nuclear repulsion after PCM non-electrostatic terms =      346.7015541595 Hartrees.
 One-electron integrals computed using PRISM.
 NBasis=   136 RedAO= T EigKep=  4.24D-04  NBF=   136
 NBsUse=   136 1.00D-06 EigRej= -1.00D+00 NBFU=   136
 Initial guess from the checkpoint file:  "HHbz.chk"
 B after Tr=    -0.000000    0.000000   -0.000000
         Rot=    0.999999    0.000031    0.000130    0.001379 Ang=   0.16 deg.
 ExpMin= 1.61D-01 ExpMax= 5.48D+03 ExpMxC= 8.25D+02 IAcc=3 IRadAn=         5 AccDes= 0.00D+00
 Harris functional with IExCor=  402 and IRadAn=       5 diagonalized for initial guess.
 HarFok:  IExCor=  402 AccDes= 0.00D+00 IRadAn=         5 IDoV= 1 UseB2=F ITyADJ=14
 ICtDFT=  3500011 ScaDFX=  1.000000  1.000000  1.000000  1.000000
 FoFCou: FMM=F IPFlag=           0 FMFlag=      100000 FMFlg1=           0
         NFxFlg=           0 DoJE=T BraDBF=F KetDBF=T FulRan=T
         wScrn=  0.000000 ICntrl=       500 IOpCl=  0 I1Cent=   200000004 NGrid=           0
         NMat0=    1 NMatS0=      1 NMatT0=    0 NMatD0=    1 NMtDS0=    0 NMtDT0=    0
 Petite list used in FoFCou.
 Requested convergence on RMS density matrix=1.00D-08 within 128 cycles.
 Requested convergence on MAX density matrix=1.00D-06.
 Requested convergence on             energy=1.00D-06.
 No special actions if energy rises.
 Inv3:  Mode=1 IEnd=     5250987.
 Iteration    1 A*A^-1 deviation from unit magnitude is 3.11D-15 for   1222.
 Iteration    1 A*A^-1 deviation from orthogonality  is 1.93D-15 for    880    601.
 Iteration    1 A^-1*A deviation from unit magnitude is 3.11D-15 for   1321.
 Iteration    1 A^-1*A deviation from orthogonality  is 2.05D-15 for   1323   1177.
 Error on total polarization charges =  0.01756
 SCF Done:  E(RB3LYP) =  -346.786510044     A.U. after   10 cycles
            NFock= 10  Conv=0.28D-08     -V/T= 2.0096
 SMD-CDS (non-electrostatic) energy       (kcal/mol) =      -3.74
 (included in total energy above)
 D1PCM: PCM CHGder 1st derivatives, ID1Alg=3 FixD1E=F DoIter=F DoCFld=F I1PDM=0.
 Calling FoFJK, ICntrl=      2127 FMM=F ISym2X=0 I1Cent= 0 IOpClX= 0 NMat=1 NMatS=1 NMatT=0.
 ***** Axes restored to original set *****
 -------------------------------------------------------------------
 Center     Atomic                   Forces (Hartrees/Bohr)
 Number     Number              X              Y              Z
 -------------------------------------------------------------------
      1        6           0.000465013    0.000267191    0.000243398
      2        6          -0.001244725    0.000689195    0.000062988
      3        6           0.001762570   -0.000418384   -0.000108963
      4        6          -0.000613540    0.000730706   -0.000231084
      5        6           0.000455329   -0.000654726    0.000131468
      6        6           0.000729712   -0.000012452   -0.000151781
      7        1          -0.000202427   -0.000414494    0.000003311
      8        1           0.000459398   -0.000397431   -0.000053332
      9        1          -0.000236797    0.000483909    0.000016501
     10        1          -0.000471363    0.000108177   -0.000013921
     11        8          -0.000672428   -0.000476244   -0.000738332
     12        1          -0.000222814    0.000372529    0.000849224
     13        6          -0.000643641   -0.000557025    0.000133287
     14        1          -0.000177154    0.000261680   -0.000521521
     15        1          -0.000119903    0.000242005    0.000426558
     16        1           0.000732769   -0.000224636   -0.000047801
 -------------------------------------------------------------------
 Cartesian Forces:  Max     0.001762570 RMS     0.000521279

 GradGradGradGradGradGradGradGradGradGradGradGradGradGradGradGradGradGrad
 Berny optimization.
 Using GEDIIS/GDIIS optimizer.
 FormGI is forming the generalized inverse of G from B-inverse, IUseBI=4.
 Internal  Forces:  Max     0.000890492 RMS     0.000280517
 Search for a local minimum.
 Step number   3 out of a maximum of   83
 All quantities printed in internal units (Hartrees-Bohrs-Radians)
 Mixed Optimization -- En-DIIS/RFO-DIIS
 Update second derivatives using D2CorX and points    1    2    3
 DE= -2.65D-04 DEPred=-2.40D-04 R= 1.11D+00
 TightC=F SS=  1.41D+00  RLast= 5.86D-02 DXNew= 8.4853D-01 1.7591D-01
 Trust test= 1.11D+00 RLast= 5.86D-02 DXMaxT set to 5.05D-01
 ITU=  1  1  0
 Use linear search instead of GDIIS.
     Eigenvalues ---    0.00237   0.01231   0.01360   0.02053   0.02151
     Eigenvalues ---    0.02154   0.02155   0.02155   0.02156   0.02156
     Eigenvalues ---    0.02185   0.06859   0.06887   0.13250   0.16000
     Eigenvalues ---    0.16000   0.16000   0.16000   0.16000   0.16030
     Eigenvalues ---    0.17086   0.21973   0.22138   0.24781   0.24925
     Eigenvalues ---    0.24988   0.27181   0.33704   0.33724   0.33735
     Eigenvalues ---    0.34270   0.37185   0.37231   0.38873   0.39540
     Eigenvalues ---    0.42293   0.42971   0.46327   0.46477   0.46503
     Eigenvalues ---    0.46795   0.56322
 RFO step:  Lambda=-4.08252650D-05 EMin= 2.36542743D-03
 Quartic linear search produced a step of  0.11974.
 Iteration  1 RMS(Cart)=  0.00658696 RMS(Int)=  0.00009210
 Iteration  2 RMS(Cart)=  0.00008376 RMS(Int)=  0.00000403
 Iteration  3 RMS(Cart)=  0.00000001 RMS(Int)=  0.00000403
 Variable       Old X    -DE/DX   Delta X   Delta X   Delta X     New X
                                 (Linear)    (Quad)   (Total)
    R1        2.63901  -0.00038   0.00019  -0.00098  -0.00079   2.63822
    R2        2.63680  -0.00006   0.00000  -0.00019  -0.00019   2.63662
    R3        2.05258   0.00046  -0.00008   0.00128   0.00120   2.05378
    R4        2.63610   0.00008   0.00022   0.00013   0.00035   2.63645
    R5        2.05141   0.00058  -0.00021   0.00171   0.00151   2.05292
    R6        2.65421   0.00055   0.00101   0.00112   0.00214   2.65635
    R7        2.62972  -0.00089  -0.00118  -0.00267  -0.00385   2.62587
    R8        2.64751  -0.00036   0.00028  -0.00083  -0.00056   2.64696
    R9        2.85151  -0.00035  -0.00282  -0.00074  -0.00356   2.84795
   R10        2.63949  -0.00015  -0.00028  -0.00025  -0.00053   2.63896
   R11        2.05416   0.00054   0.00009   0.00148   0.00156   2.05572
   R12        2.05243   0.00047  -0.00021   0.00137   0.00116   2.05359
   R13        1.83763  -0.00087   0.00051  -0.00170  -0.00119   1.83644
   R14        2.07259  -0.00050   0.00062  -0.00123  -0.00061   2.07198
   R15        2.07587  -0.00040   0.00075  -0.00093  -0.00019   2.07568
   R16        2.07007  -0.00063   0.00055  -0.00162  -0.00107   2.06900
    A1        2.08942  -0.00012  -0.00016  -0.00077  -0.00094   2.08848
    A2        2.09266   0.00003   0.00008   0.00014   0.00022   2.09288
    A3        2.10109   0.00009   0.00009   0.00064   0.00073   2.10182
    A4        2.09261   0.00028   0.00037   0.00128   0.00165   2.09426
    A5        2.11550   0.00005   0.00078   0.00046   0.00124   2.11674
    A6        2.07506  -0.00033  -0.00115  -0.00175  -0.00290   2.07216
    A7        2.11844  -0.00034  -0.00020  -0.00108  -0.00129   2.11716
    A8        2.08138   0.00013  -0.00002   0.00031   0.00029   2.08166
    A9        2.08213   0.00020   0.00024   0.00050   0.00073   2.08286
   A10        2.05427  -0.00000  -0.00061  -0.00005  -0.00066   2.05361
   A11        2.10175  -0.00006   0.00003  -0.00026  -0.00023   2.10152
   A12        2.12717   0.00006   0.00058   0.00031   0.00089   2.12805
   A13        2.11997   0.00008   0.00069   0.00030   0.00098   2.12095
   A14        2.07455  -0.00008  -0.00041  -0.00047  -0.00088   2.07367
   A15        2.08866   0.00000  -0.00028   0.00017  -0.00010   2.08856
   A16        2.09163   0.00011  -0.00008   0.00034   0.00025   2.09188
   A17        2.09813   0.00006   0.00037   0.00047   0.00083   2.09896
   A18        2.09342  -0.00016  -0.00028  -0.00081  -0.00109   2.09233
   A19        1.90032   0.00016   0.00317  -0.00036   0.00281   1.90313
   A20        1.94158   0.00031   0.00125   0.00194   0.00318   1.94475
   A21        1.94821   0.00026   0.00131   0.00147   0.00277   1.95098
   A22        1.93317   0.00048   0.00124   0.00323   0.00445   1.93762
   A23        1.86271  -0.00036  -0.00186  -0.00253  -0.00439   1.85831
   A24        1.89268  -0.00038  -0.00085  -0.00211  -0.00298   1.88970
   A25        1.88265  -0.00039  -0.00128  -0.00242  -0.00372   1.87894
    D1       -0.00466   0.00006  -0.00045   0.00300   0.00255  -0.00211
    D2        3.13089   0.00002  -0.00009   0.00104   0.00095   3.13184
    D3        3.14114   0.00001  -0.00011   0.00074   0.00064  -3.14140
    D4       -0.00648  -0.00002   0.00025  -0.00122  -0.00097  -0.00745
    D5       -0.00024  -0.00006   0.00074  -0.00346  -0.00272  -0.00296
    D6       -3.13797  -0.00003   0.00044  -0.00166  -0.00121  -3.13918
    D7        3.13712  -0.00002   0.00039  -0.00119  -0.00080   3.13632
    D8       -0.00061   0.00001   0.00010   0.00061   0.00071   0.00010
    D9        0.00866  -0.00004   0.00005  -0.00173  -0.00169   0.00698
   D10        3.09641  -0.00013   0.00047  -0.00762  -0.00715   3.08926
   D11       -3.12703  -0.00001  -0.00031   0.00017  -0.00014  -3.12717
   D12       -0.03928  -0.00009   0.00011  -0.00571  -0.00560  -0.04489
   D13       -0.00745   0.00002   0.00006   0.00089   0.00095  -0.00650
   D14        3.13524   0.00000   0.00044  -0.00056  -0.00012   3.13512
   D15       -3.09517   0.00011  -0.00035   0.00678   0.00643  -3.08874
   D16        0.04751   0.00009   0.00003   0.00533   0.00536   0.05287
   D17        1.61632   0.00039   0.00173   0.03100   0.03273   1.64905
   D18       -1.57798   0.00029   0.00212   0.02519   0.02731  -1.55067
   D19        0.00244  -0.00002   0.00024  -0.00135  -0.00112   0.00132
   D20       -3.14121  -0.00001  -0.00012  -0.00048  -0.00060   3.14138
   D21       -3.14026  -0.00000  -0.00015   0.00012  -0.00003  -3.14029
   D22       -0.00073   0.00001  -0.00050   0.00099   0.00049  -0.00024
[...]

 Dipole orientation:
     6          2.05995632         -0.31557818         -2.46732423
     6          4.66124908         -0.55303901         -2.13726317
     6          5.67716936         -0.64653854          0.29949246
     6          4.10830181         -0.50380356          2.44364682
     6          1.50294838         -0.26594758          2.05274093
     6          0.46543262         -0.17059837         -0.36977917
     1          1.28290529         -0.24411581         -4.36732694
     1          5.93693499         -0.66927742         -3.74084517
     1          0.27164801         -0.15388244          3.69525720
     1         -1.56435925          0.01515968         -0.61445013
     8          8.24621940         -0.88145534          0.48578454
     1          8.72713030         -0.92538980          2.25432518
     6          5.22646043         -0.60659497          5.06824789
     1          6.24763434         -2.38275557          5.41903162
     1          6.55462383          0.95331543          5.41893719
     1          3.74482118         -0.47010033          6.50326131

 Electric dipole moment (dipole orientation):
 (Debye = 10**-18 statcoulomb cm , SI units = C m)
                  (au)            (Debye)         (10**-30 SI)
   Tot        0.759633D+00      0.193080D+01      0.644044D+01
   x          0.000000D+00      0.000000D+00      0.000000D+00
   y          0.000000D+00      0.000000D+00      0.000000D+00
   z          0.759633D+00      0.193080D+01      0.644044D+01

 Dipole polarizability, Alpha (dipole orientation).
 (esu units = cm**3 , SI units = C**2 m**2 J**-1)
 Alpha(0;0):
               (au)            (10**-24 esu)      (10**-40 SI)
   iso        0.831328D+02      0.123190D+02      0.137067D+02
   aniso      0.715769D+02      0.106066D+02      0.118014D+02
   xx         0.104761D+03      0.155240D+02      0.172727D+02
   yx        -0.626691D+01     -0.928661D+00     -0.103327D+01
   yy         0.367278D+02      0.544249D+01      0.605559D+01
   zx         0.710482D+01      0.105283D+01      0.117143D+01
   zy        -0.667988D+00     -0.989857D-01     -0.110136D+00
   zz         0.107910D+03      0.159906D+02      0.177919D+02

 ----------------------------------------------------------------------
 Unable to Open any file for archive entry.
 1\1\GINC-RONG-OPTIPLEX-7040\Freq\RB3LYP\6-31G(d)\C7H8O1\RONG\23-Sep-20
 21\0\\#N Geom=AllCheck Guess=TCheck SCRF=Check GenChk RB3LYP/6-31G(d) 
 Freq\\HHbz\\0,1\C,0.8966761762,-1.4549235635,0.007894536\C,2.287212947
 7,-1.4874074797,-0.0728801331\C,3.0116988874,-0.2923876627,-0.10835908
 64\C,2.3572281788,0.9534197617,-0.0637889556\C,0.9597779024,0.95438376
 37,0.0172122132\C,0.2250914703,-0.2314841119,0.0533935645\H,0.33969574
 72,-2.3879030088,0.0351271126\H,2.83038611,-2.4272044867,-0.1092911188
 \H,0.4429578194,1.9110527065,0.0522460438\H,-0.858970615,-0.1993941436
 ,0.1161535443\O,4.3740548019,-0.3975672148,-0.1876615052\H,4.765315163
 7,0.4899836283,-0.2057810374\C,3.1501052759,2.238675469,-0.1027922158\
 H,3.8446143706,2.3251344494,0.7457776997\H,3.7432874893,2.3339531097,-
 1.0241337735\H,2.4855317541,3.1065207235,-0.0604804684\\Version=ES64L-
 G16RevC.01\State=1-A\HF=-346.7924917\RMSD=2.374e-09\RMSF=3.936e-05\Zer
 oPoint=0.1326494\Thermal=0.1397721\ETot=-346.6527196\HTot=-346.6517755
 \GTot=-346.690756\Dipole=0.1128073,0.7512057,-0.0026938\DipoleDeriv=0.
 1188799,-0.1138931,-0.0146784,0.0540585,0.1696319,-0.0015462,-0.013791
 5,0.0082123,-0.1225157,-0.2299377,0.0459351,0.0035241,-0.2598184,0.034
 9707,0.0161617,0.0019175,-0.0016644,-0.1735347,1.4958037,-0.0029198,-0
 .0782379,-0.1068205,0.0130502,0.0055098,-0.0787039,-0.0005062,0.148226
 3,-0.2166578,0.0181331,0.0079758,0.3616694,0.1399116,-0.0197464,0.0098
 463,0.0003081,-0.0810512,0.1306029,0.0687113,-0.0149195,-0.0617031,0.1
 350731,0.0050179,-0.0156525,-0.0025795,-0.1324124,0.0126696,-0.0175262
 ,-0.0099144,-0.0404864,-0.2797172,0.0016721,-0.0098763,0.0003539,-0.15
 71514,0.0227124,-0.0929177,0.0053207,-0.0964624,-0.0834918,0.0044764,0
 .0053079,0.0042452,0.122933,0.0254383,0.0893172,0.0068911,0.0692242,-0
 .042886,-0.0049738,0.0067607,-0.006061,0.1357218,0.036862,0.0744156,0.
 0049851,0.0914127,-0.102478,-0.0064629,0.0050819,-0.0054413,0.1156806,
 -0.1369461,-0.0031133,0.0156197,0.0062184,0.0633858,-0.0007325,0.01556
 45,-0.0001945,0.1323681,-1.6457145,0.0190596,0.0706031,0.0443635,-0.26
 29362,-0.0017419,0.0706312,-0.0002443,-0.4312301,0.4214204,-0.0221657,
 -0.004719,-0.0151322,0.2151377,0.0002239,-0.004598,0.0006138,0.3422439
 ,0.0576461,-0.0125745,0.0042242,0.0104689,0.0770231,-0.0008285,0.00422
 98,0.0002907,0.1317728,-0.0564748,-0.0896538,-0.1061,-0.0447939,-0.007
 0251,0.0199056,-0.1064309,-0.0155346,-0.0500912,-0.0324744,-0.0882288,
 0.1032357,-0.0476771,-0.0069387,-0.0141291,0.1039681,0.0262491,-0.0741
 896,-0.0038298,0.127421,0.0061896,0.0354783,-0.062711,-0.0028061,0.005
 7451,-0.0080474,0.0932297\Polar=107.2516236,7.2092959,105.7556567,-4.0
 774582,-0.0430917,36.3911268\Quadrupole=1.457562,2.2075497,-3.6651117,
 3.2380654,-0.2805547,-0.1560936\PG=C01 [X(C7H8O1)]\NImag=0\\0.69631177
 ,0.02998717,0.72655859,-0.03266609,0.00147924,0.13155357,-0.35322878,-
 0.02621979,0.01721451,0.72467893,0.03696314,-0.12851853,-0.00254249,-0
 .03414922,0.71723189,0.01755124,0.00111875,-0.05479000,-0.03518160,0.0
 0517054,0.12223420,-0.03078950,-0.02775519,0.00163101,-0.16257720,-0.1
 1577185,0.00511113,0.69246690,-0.07962909,0.04259593,0.00484205,-0.042
 50415,-0.28678287,0.00125483,0.02742528,0.71056577,0.00135439,0.001835
 46,-0.00009805,0.00549871,0.00549726,-0.06383360,-0.03101456,0.0013965
 1,0.15566302,-0.04559450,0.03204217,0.00263433,0.05872375,0.01747405,-
 0.00299241,-0.14986055,0.02383506,0.00492477,0.68631493,0.02796487,-0.
 01889697,-0.00170543,-0.02436069,-0.04813611,0.00112606,0.09601377,-0.
 26594496,-0.00662702,-0.00209575,0.63237955,0.00261345,-0.00193980,-0.
 00325145,-0.00321879,-0.00130424,0.00557435,0.00532040,-0.00244681,-0.
 06721686,-0.03075713,0.00268386,0.15723256,0.06100455,-0.02775888,-0.0
 0331262,-0.04758246,-0.02379810,0.00240596,-0.02598504,0.08149561,0.00
 197843,-0.32972874,-0.03171304,0.01566534,0.67960637,0.02279929,-0.060
 11796,-0.00167888,-0.02898969,-0.01789854,0.00160237,0.03159536,0.0374
 0933,-0.00162991,0.03579721,-0.12455446,-0.00243955,-0.01606441,0.7310
 7933,-0.00304058,0.00125134,0.00657479,0.00237818,0.00130254,-0.003978
 66,0.00170839,-0.00452409,0.00044536,0.01602458,0.00147468,-0.05743429
 ,-0.03186335,0.00414326,0.13284357,-0.17627539,0.12236020,0.00749511,-
 0.02691265,0.02833468,0.00209710,0.00439381,-0.00189970,-0.00045836,-0
 .03056624,-0.02449175,0.00191337,-0.18715446,-0.12912969,0.00678851,0.
 74636289,0.05817184,-0.29173243,-0.00463006,0.07543397,0.03018334,-0.0
 0424373,-0.00224417,-0.07435020,-0.00025251,-0.07254074,0.03600442,0.0
 0437087,-0.06428272,-0.28224958,0.00251993,-0.00266493,0.67137079,0.00
 714394,-0.00834502,-0.05868769,0.00235311,-0.00151278,0.00651813,-0.00
 046452,-0.00027091,-0.00335625,0.00165899,0.00158223,0.00466626,0.0071
 2958,0.00627132,-0.05830171,-0.03614943,0.00311371,0.12354829,-0.13354
 079,-0.12249849,0.00502397,-0.01184165,-0.02882047,0.00065571,-0.00417
 806,0.00237499,0.00070041,-0.00082992,0.00065852,0.00000909,-0.0009688
 4,0.00288283,0.00046812,0.01226921,0.01413912,-0.00049761,0.13778393,-
 0.12280551,-0.26599613,0.00586980,0.00230688,0.00426765,-0.00012231,0.
 00131279,0.00140665,-0.00010997,0.00069200,0.00026521,-0.00003476,0.00
 434663,-0.00316287,-0.00030540,-0.01702499,-0.01848558,0.00087344,0.13
 266710,0.28069457,0.00501885,0.00585341,-0.03568045,0.00082637,0.00168
 247,0.00213072,0.00069414,-0.00017299,0.00764970,0.00000847,-0.0000323
 1,-0.00073467,0.00047664,-0.00021983,0.00681229,-0.00066566,-0.0009342
 7,0.00239374,-0.00579390,-0.00630764,0.02572706,-0.00979094,0.02895195
 ,0.00079258,-0.12773768,0.12147731,0.00612472,0.01078300,-0.01497690,-
 0.00046936,-0.00179441,-0.00266868,0.00041862,-0.00083391,-0.00080823,
 0.00002266,-0.00527127,-0.00172170,0.00069225,0.00134597,-0.00034751,-
 0.00031564,0.13128588,-0.00155058,0.00449045,0.00010736,0.11975976,-0.
 27334521,-0.00820672,0.01732039,-0.02006064,-0.00113041,-0.00410260,-0
 .00265553,0.00019266,-0.00114994,0.00011606,0.00006933,-0.00059902,0.0
 0170571,0.00000756,0.00035279,0.00079193,0.00000532,-0.13157085,0.2876
 0006,0.00063380,-0.00166177,0.00119263,0.00611108,-0.00830098,-0.03344
 509,-0.00029756,0.00073792,0.00407114,0.00041093,0.00010881,0.00566398
 ,0.00001965,0.00004936,-0.00036733,0.00069986,0.00007416,0.00681230,-0
 .00031224,0.00004638,-0.00405888,-0.00690623,0.00901357,0.02447006,-0.
 00126898,-0.00303485,0.00044100,-0.00089700,-0.00057285,0.00001654,-0.
 00475346,-0.00222094,0.00065798,-0.01210063,0.02820057,0.00103513,-0.1
 2180149,0.11523380,0.00561405,0.01205944,-0.01574064,-0.00064269,0.000
 49582,-0.00088000,-0.00001505,0.00014307,0.00012113,-0.00005452,0.1269
 4806,-0.00449340,-0.00284448,0.00020922,-0.00060404,0.00043294,0.00004
 035,-0.00083095,0.00134362,0.00001925,-0.00132138,0.00058700,0.0000629
 1,0.11621711,-0.27198089,-0.00799169,0.01547067,-0.01903410,-0.0010107
 0,0.00080838,-0.00115940,-0.00005464,0.00016041,-0.00004354,-0.0000051
 9,-0.12437610,0.28948355,0.00043267,0.00012431,0.00660190,0.00001632,0
 .00003903,-0.00055706,0.00066586,0.00010036,0.00677548,0.00087964,-0.0
 0164693,0.00311674,0.00561599,-0.00793466,-0.03586763,-0.00047557,0.00
 079786,0.00244721,-0.00000595,0.00004291,0.00031800,-0.00005433,-0.000
 00299,-0.00080640,-0.00654784,0.00861279,0.02578107,-0.01077421,-0.002
 21185,0.00065537,0.00080762,0.00292488,0.00035354,0.00087816,-0.000082
 15,-0.00008225,0.00084004,-0.00284958,0.00032864,-0.01235979,0.0030981
 1,0.00076495,-0.33917932,0.00819717,0.01783137,0.00086335,0.00018538,-
 0.00026724,-0.00064029,-0.00017567,0.00007076,0.00091176,-0.00019716,-
 0.00027346,0.35969651,0.02937350,0.00395810,-0.00168129,0.00151502,-0.
 00476758,-0.00014894,-0.00015765,-0.00155009,0.00000368,-0.00152105,-0
 .00431971,0.00002789,-0.02871460,0.00503623,0.00168432,0.00827266,-0.0
 5970984,-0.00063163,-0.00061237,0.00118580,0.00006223,0.00149737,0.000
 12058,-0.00008978,0.00053359,0.00113890,-0.00000441,-0.00894193,0.0584
 2771,0.00082989,0.00014292,0.00071886,0.00034634,-0.00023275,0.0066452
 3,-0.00008158,-0.00000048,-0.00053089,0.00033688,0.00010697,0.00678520
 ,0.00059786,-0.00015366,0.00054491,0.01782362,-0.00062641,-0.03220936,
 -0.00027254,0.00001604,-0.00376868,0.00008013,0.00000765,0.00059293,-0
 .00027037,0.00003788,-0.00379092,-0.01942637,0.00070111,0.02529412,0.0
 0540288,-0.00101242,-0.00003718,-0.04509982,-0.01161503,0.00289796,-0.
 30718581,0.04532366,0.01564921,-0.04299675,0.00989985,0.00300311,0.003
 68919,0.00192908,0.00020884,-0.00651862,0.00102310,0.00032753,-0.00106
 232,-0.00041173,0.00007218,0.00173762,0.00083196,-0.00028384,-0.001541
 77,0.00026475,0.00008975,-0.00032685,0.00001943,-0.00002454,0.49431151
 ,0.00452715,-0.00929999,-0.00033897,-0.04940716,0.00672697,0.00286110,
 -0.00740433,-0.11206104,0.00005421,0.04122235,0.00047253,-0.00242398,-
 0.00485300,-0.00896448,0.00019574,-0.00000440,0.00568716,0.00003670,-0
 .00183484,0.00006680,0.00010585,0.00071576,0.00194275,-0.00001412,0.00
 180891,0.00011355,-0.00010464,0.00000769,0.00041576,0.00000537,0.13644
 129,0.53825311,-0.00000483,-0.00001659,0.00484416,0.00270015,0.0006725
 5,0.00603210,0.01537800,-0.00298928,-0.04153244,0.00317874,-0.00061464
 ,0.00789074,0.00017298,-0.00020025,0.00715233,0.00031705,-0.00002071,-
 0.00103550,0.00006450,0.00002299,0.00021176,-0.00028575,-0.00002049,-0
 .00324459,0.00009760,-0.00001480,-0.00003056,-0.00002315,0.00000505,-0
 .00072809,-0.02652687,-0.00526223,0.02506772,0.00043859,-0.00226823,0.
 00007053,-0.00708922,0.00338643,0.00053653,-0.02668046,-0.04709253,0.0
 0109825,0.00149283,-0.00131831,-0.00008770,-0.00078677,-0.00114803,0.0
 0001708,0.00047505,0.00072896,-0.00003117,-0.00048452,0.00013521,0.000
 02106,0.00011371,0.00002524,-0.00004665,0.00037441,-0.00002945,-0.0000
 2090,0.00007768,0.00010929,-0.00000839,-0.10651283,-0.12578784,0.00541
 099,0.13724719,-0.00044396,-0.00004459,0.00001527,0.00183049,0.0019317
 7,-0.00010292,0.00030826,0.00215910,0.00001069,0.00550330,0.00055342,-
 0.00031631,-0.00026751,-0.00067435,0.00001407,0.00056518,-0.00022799,-
 0.00003366,0.00002181,0.00009619,-0.00000030,0.00017799,0.00036413,-0.
 00000460,0.00026464,0.00005693,-0.00001524,-0.00002410,-0.00001950,0.0
 0000194,-0.17997936,-0.42689396,0.00824512,0.17108361,0.42437871,0.000
 07985,0.00012047,0.00188034,0.00052565,-0.00019465,0.00181629,0.001338
 55,0.00275041,-0.00357151,-0.00005158,0.00007924,0.00010616,0.00002237
 ,0.00006598,-0.00038441,-0.00003143,-0.00004353,-0.00012966,0.00002019
 ,-0.00000657,-0.00013489,-0.00004597,0.00000427,-0.00069601,-0.0000192
 7,0.00000191,0.00002096,-0.00000923,-0.00000598,-0.00007887,0.00513903
 ,0.00511442,-0.00215837,-0.00685984,-0.00775407,0.00392126,-0.00164132
 ,-0.00062107,0.00003948,-0.00161520,0.00513695,0.00046986,0.01038046,0
 .00680800,-0.00039796,-0.12134251,-0.04909426,0.00267277,-0.01852990,-
 0.03051751,0.00107154,-0.00292674,0.00225736,0.00064240,0.00016769,-0.
 00006564,-0.00006844,0.00078572,0.00114999,-0.00004099,0.00124855,-0.0
 0128795,-0.00033547,-0.00050805,-0.00105876,0.00005552,0.00291269,0.00
 445222,-0.00037222,0.00050715,0.00062582,0.00014091,0.54771388,0.00096
 311,-0.00053850,-0.00005371,0.00341747,-0.00190888,-0.00024002,-0.0094
 0854,-0.03129705,0.00036060,-0.05658424,-0.17813209,0.00269501,-0.0077
 9994,-0.00101252,0.00043141,0.00204681,0.00237952,-0.00014584,-0.00005
 614,0.00004178,0.00000858,-0.00075359,-0.00056592,0.00004037,0.0020128
 9,0.00089940,-0.00008988,0.00040455,0.00045137,-0.00002415,-0.00672216
 ,-0.00026983,0.00041134,0.00069542,0.00182306,-0.00004735,-0.04752535,
 0.52353594,0.00004407,0.00003692,-0.00090790,0.00046321,-0.00033543,0.
 00600138,-0.00049744,-0.00058044,0.00284619,0.00263672,0.00227090,-0.0
 7077342,0.00119800,0.00175125,0.00276972,0.00064583,-0.00016321,0.0079
 4869,-0.00006865,0.00000962,-0.00100746,-0.00005098,-0.00006937,-0.000
 02635,-0.00031921,0.00010329,-0.00441848,0.00006337,0.00006157,0.00054
 324,-0.00042343,-0.00022866,-0.00390576,0.00014939,-0.00005150,0.00295
 028,-0.00089591,0.00264294,0.53719152,-0.00014462,0.00004849,-0.000043
 80,-0.00020396,-0.00020969,0.00014971,-0.00178142,0.00203816,0.0007146
 8,-0.01281917,-0.00405533,-0.01069907,0.00031045,-0.00245398,-0.000716
 19,-0.00045803,-0.00042303,0.00112103,-0.00001093,-0.00006621,-0.00008
 545,0.00001235,-0.00008268,-0.00002955,0.00007723,-0.00006153,-0.00064
 249,-0.00015734,-0.00018305,0.00006906,0.00154453,-0.00009053,0.000235
 49,0.00015248,0.00033798,-0.00037320,-0.14617217,-0.00777200,-0.123484
 02,0.15932279,-0.00083067,0.00002688,-0.00015703,0.00032636,0.00072648
 ,0.00113381,-0.00315168,-0.00010836,0.00011079,-0.01910799,-0.00205105
 ,-0.02193002,0.00072327,-0.00241557,-0.00076974,-0.00041188,-0.0006570
 2,0.00110133,-0.00001084,-0.00002293,-0.00010817,0.00007208,-0.0000414
 3,-0.00006434,-0.00016191,0.00019623,-0.00030199,-0.00015357,-0.000192
 41,0.00015770,0.00233385,0.00166149,0.00013877,0.00078067,-0.00168728,
 -0.00144264,-0.01067209,-0.04997200,-0.01424794,0.01343969,0.05236190,
 -0.00013962,0.00009700,-0.00000245,0.00028263,-0.00006015,-0.00031671,
 -0.00219559,0.00036923,0.00094823,0.00254988,-0.00171425,0.00511998,0.
 00084525,0.00030364,-0.00035749,0.00014388,-0.00020443,-0.00030060,0.0
 0001729,-0.00000417,0.00006116,-0.00003006,-0.00005347,0.00000655,0.00
 006542,0.00000454,0.00012677,0.00002135,0.00000810,0.00001470,0.001465
 78,0.00044655,0.00030414,0.00049462,-0.00148001,-0.00115763,-0.1236614
 4,-0.01196702,-0.20209544,0.13625022,0.01412827,0.21774519,-0.00012328
 ,0.00003758,0.00005813,-0.00025280,-0.00019859,-0.00015819,-0.00158041
 ,0.00198702,-0.00040167,-0.01167603,-0.00394427,0.01260355,0.00028513,
 -0.00248513,0.00061847,-0.00060280,-0.00038562,-0.00108943,-0.00000214
 ,-0.00006642,0.00009179,0.00001915,-0.00007646,0.00002745,0.00014512,-
 0.00006872,0.00063930,-0.00016584,-0.00018275,-0.00005040,0.00134409,-
 0.00013016,-0.00036378,0.00012308,0.00050221,0.00023293,-0.11888755,-0
 .00745668,0.11389114,0.01287004,0.00158295,-0.01800038,0.12920058,-0.0
 0080634,0.00002498,0.00025239,0.00019545,0.00073738,-0.00115237,-0.003
 16518,-0.00010087,0.00024549,-0.01646414,-0.00228919,0.02389887,0.0008
 1006,-0.00243009,0.00065899,-0.00053663,-0.00064350,-0.00105101,0.0000
 0193,-0.00002417,0.00010778,0.00007880,-0.00004237,0.00005505,-0.00012
 543,0.00019285,0.00031934,-0.00017091,-0.00019140,-0.00014114,0.002322
 18,0.00166492,-0.00039412,0.00095022,-0.00172238,0.00133771,-0.0100787
 3,-0.05024836,0.01708952,0.00133206,-0.00047718,-0.00078195,0.01294527
 ,0.05266849,0.00014520,-0.00010049,-0.00002394,-0.00028868,0.00009378,
 -0.00027676,0.00245975,-0.00061113,0.00073934,-0.00078681,0.00209932,0
 .00421948,-0.00091074,-0.00004051,-0.00032747,-0.00011588,0.00024508,-
 0.00016616,-0.00000995,0.00001088,0.00005376,0.00002947,0.00006221,0.0
 0000106,-0.00006854,0.00000365,0.00006390,-0.00000237,0.00001068,0.000
 02138,-0.00157093,-0.00042381,0.00050239,-0.00063429,0.00143338,-0.001
 09564,0.11405281,0.01449654,-0.22912667,0.01401409,0.00082925,-0.02198
 001,-0.12599346,-0.01744066,0.24758798,0.00001453,-0.00004679,0.000003
 67,0.00082813,-0.00056164,-0.00003780,-0.00353043,-0.00288231,0.000247
 32,0.01193792,-0.01614592,-0.00082077,0.00083573,-0.00173902,-0.000065
 26,0.00030513,0.00005201,-0.00002534,-0.00000680,0.00002204,0.00000190
 ,-0.00015796,-0.00025348,-0.00000195,-0.00004012,0.00034935,0.00001647
 ,0.00003657,0.00005129,-0.00000512,0.00030225,0.00033689,0.00002111,0.
 00055163,-0.00050636,-0.00010895,-0.15209270,0.13453839,0.00664792,-0.
 01254222,0.01524177,0.00189076,-0.01069633,0.01271139,-0.00031966,0.16
 425465,-0.00019053,0.00033466,0.00001252,0.00144934,-0.00088070,-0.000
 09079,-0.00408631,-0.00322433,0.00021589,0.01717175,-0.02328207,-0.001
 09659,0.00280945,0.00182036,-0.00015468,-0.00028721,-0.00024070,0.0000
 1526,-0.00007432,0.00003451,0.00000452,-0.00028421,-0.00037702,0.00001
 517,-0.00106281,0.00061743,0.00006414,-0.00001085,0.00001608,0.0000010
 0,-0.00064844,0.00048424,0.00003729,-0.00025066,-0.00009326,0.00002038
 ,0.13049100,-0.21518592,-0.00828947,-0.00179834,0.00265226,0.00090811,
 -0.00206025,0.00288089,-0.00066817,-0.14116762,0.23444357,0.00000376,0
 .00000385,0.00007569,-0.00002720,0.00002528,0.00024546,0.00024402,0.00
 014483,0.00100114,-0.00065600,0.00080852,-0.00096476,-0.00004133,0.000
 11008,-0.00012399,-0.00002800,-0.00000276,-0.00014770,0.00000156,-0.00
 000122,0.00002684,-0.00000209,0.00001351,-0.00016599,0.00000977,-0.000
 01876,0.00021902,-0.00000526,-0.00000259,-0.00005376,0.00001342,-0.000
 02353,0.00062999,-0.00010952,0.00003815,-0.00128829,0.00662715,-0.0085
 1881,-0.04798955,-0.01648051,0.02142195,0.00188362,0.01789454,-0.02300
 390,-0.00019264,-0.00744431,0.00900542,0.04684494\\0.00008767,-0.00005
 223,0.00000002,-0.00015168,-0.00002734,-0.00000815,0.00001113,0.000068
 92,-0.00000352,0.00008043,-0.00005729,-0.00000926,-0.00008427,-0.00006
 056,0.00001482,0.00002134,0.00008462,0.00001039,-0.00000928,-0.0000126
 3,0.00000121,0.00002825,-0.00000761,0.00000310,0.00000285,0.00001482,-
 0.00000039,-0.00001240,-0.00001054,-0.00000981,0.00001683,0.00002865,0
 .00000551,0.00002061,0.00000158,-0.00000330,-0.00003696,0.00001868,-0.
 00001477,0.00000965,0.00000916,-0.00000921,0.00000066,0.00000951,0.000
 02867,0.00001516,-0.00000771,-0.00000532\\\@
 The archive entry for this job was punched.


 WHEN ALL ELSE FAILS, LOOK AT THE SCHRODINGER EQUATION.
     -- RUSSELL T. PACK, APRIL 1978
 Job cpu time:       0 days  0 hours 13 minutes 49.3 seconds.
 Elapsed time:       0 days  0 hours  1 minutes 43.8 seconds.
 File lengths (MBytes):  RWF=     72 Int=      0 D2E=      0 Chk=      7 Scr=      1
 Normal termination of Gaussian 16 at Thu Sep 23 12:43:10 2021.
