 Entering Gaussian System, Link 0=/home/rong/g16/g16
 Input=/home/rong/g16/111821/A10PDB.gjf
 Output=/home/rong/g16/111821/A10PDB.log
 Initial command:
 /home/rong/g16/l1.exe "/tmp/Gau-225286.inp" -scrdir="/tmp/"
 Default is to use a total of   8 processors:
                                8 via shared-memory
                                1 via Linda
 Entering Link 1 = /home/rong/g16/l1.exe PID=    225288.
  
 Copyright (c) 1988-2019, Gaussian, Inc.  All Rights Reserved.
  
 This is part of the Gaussian(R) 16 program.  It is based on
 the Gaussian(R) 09 system (copyright 2009, Gaussian, Inc.),
 the Gaussian(R) 03 system (copyright 2003, Gaussian, Inc.),
 the Gaussian(R) 98 system (copyright 1998, Gaussian, Inc.),
 the Gaussian(R) 94 system (copyright 1995, Gaussian, Inc.),
 the Gaussian 92(TM) system (copyright 1992, Gaussian, Inc.),
 the Gaussian 90(TM) system (copyright 1990, Gaussian, Inc.),
 the Gaussian 88(TM) system (copyright 1988, Gaussian, Inc.),
 the Gaussian 86(TM) system (copyright 1986, Carnegie Mellon
 University), and the Gaussian 82(TM) system (copyright 1983,
 Carnegie Mellon University). Gaussian is a federally registered
 trademark of Gaussian, Inc.
  
 This software contains proprietary and confidential information,
 including trade secrets, belonging to Gaussian, Inc.
  
 This software is provided under written license and may be
 used, copied, transmitted, or stored only in accord with that
 written license.
  
 The following legend is applicable only to US Government
 contracts under FAR:
  
                    RESTRICTED RIGHTS LEGEND
  
 Use, reproduction and disclosure by the US Government is
 subject to restrictions as set forth in subparagraphs (a)
 and (c) of the Commercial Computer Software - Restricted
 Rights clause in FAR 52.227-19.
  
 Gaussian, Inc.
 340 Quinnipiac St., Bldg. 40, Wallingford CT 06492
  
  
 ---------------------------------------------------------------
 Warning -- This program may not be used in any manner that
 competes with the business of Gaussian, Inc. or will provide
 assistance to any competitor of Gaussian, Inc.  The licensee
 of this program is prohibited from giving any competitor of
 Gaussian, Inc. access to this program.  By using this program,
 the user acknowledges that Gaussian, Inc. is engaged in the
 business of creating and licensing software in the field of
 computational chemistry and represents and warrants to the
 licensee that it is not a competitor of Gaussian, Inc. and that
 it will not use this program in any manner prohibited above.
 ---------------------------------------------------------------
  

 Cite this work as:
 Gaussian 16, Revision C.01,
 M. J. Frisch, G. W. Trucks, H. B. Schlegel, G. E. Scuseria, 
 M. A. Robb, J. R. Cheeseman, G. Scalmani, V. Barone, 
 G. A. Petersson, H. Nakatsuji, X. Li, M. Caricato, A. V. Marenich, 
 J. Bloino, B. G. Janesko, R. Gomperts, B. Mennucci, H. P. Hratchian, 
 J. V. Ortiz, A. F. Izmaylov, J. L. Sonnenberg, D. Williams-Young, 
 F. Ding, F. Lipparini, F. Egidi, J. Goings, B. Peng, A. Petrone, 
 T. Henderson, D. Ranasinghe, V. G. Zakrzewski, J. Gao, N. Rega, 
 G. Zheng, W. Liang, M. Hada, M. Ehara, K. Toyota, R. Fukuda, 
 J. Hasegawa, M. Ishida, T. Nakajima, Y. Honda, O. Kitao, H. Nakai, 
 T. Vreven, K. Throssell, J. A. Montgomery, Jr., J. E. Peralta, 
 F. Ogliaro, M. J. Bearpark, J. J. Heyd, E. N. Brothers, K. N. Kudin, 
 V. N. Staroverov, T. A. Keith, R. Kobayashi, J. Normand, 
 K. Raghavachari, A. P. Rendell, J. C. Burant, S. S. Iyengar, 
 J. Tomasi, M. Cossi, J. M. Millam, M. Klene, C. Adamo, R. Cammi, 
 J. W. Ochterski, R. L. Martin, K. Morokuma, O. Farkas, 
 J. B. Foresman, and D. J. Fox, Gaussian, Inc., Wallingford CT, 2019.
 
 ******************************************
 Gaussian 16:  ES64L-G16RevC.01  3-Jul-2019
                18-Nov-2021 
 ******************************************
 %mem=15GB
 %chk=A10PDB.chk
 %nprocshared=8
 Will use up to    8 processors via shared memory.
 -----------------------------------------------------
 # opt freq b3lyp/6-31g(2d) scrf=(smd,solvent=toluene)
 -----------------------------------------------------
 1/18=20,19=15,26=3,38=1/1,3;
 2/9=110,12=2,17=6,18=5,40=1/2;
 3/5=1,6=6,7=2,11=2,25=1,30=1,70=32201,71=1,72=13,74=-5/1,2,3;
 4//1;
 5/5=2,38=5,53=13/2;
 6/7=2,8=2,9=2,10=2,28=1/1;
 7//1,2,3,16;
 1/18=20,19=15,26=3/3(2);
 2/9=110/2;
 99//99;
 2/9=110/2;
 3/5=1,6=6,7=2,11=2,25=1,30=1,70=32205,71=1,72=13,74=-5/1,2,3;
 4/5=5,16=3,69=1/1;
 5/5=2,38=5,53=13/2;
 7//1,2,3,16;
 1/18=20,19=15,26=3/3(-5);
 2/9=110/2;
 6/7=2,8=2,9=2,10=2,19=2,28=1/1;
 99/9=1/99;
 ------
 A10PDB
 ------
 Symbolic Z-matrix:
 Charge =  0 Multiplicity = 1
 C                    -0.725     1.613    -0.005 
 C                    -0.45      0.237     0.001 
 C                    -1.548    -0.646     0.004 
 C                    -2.878    -0.177     0.001 
 C                    -3.097     1.2      -0.005 
 C                    -2.029     2.1      -0.008 
 H                     0.105     2.315    -0.007 
 H                    -4.12      1.569    -0.008 
 H                    -2.213     3.17     -0.013 
 C                    -4.018    -1.164     0.003 
 H                    -3.983    -1.824    -0.873 
 H                    -3.984    -1.817     0.884 
 H                    -4.982    -0.645     0.001 
 O                    -1.418    -2.011     0.009 
 H                    -0.477    -2.246     0.009 
 C                     1.01     -0.252     0.004 
 C                     1.673    -0.477    -1.203 
 C                     1.671    -0.468     1.213 
 C                     2.996    -0.92     -1.2 
 H                     1.152    -0.307    -2.156 
 C                     2.994    -0.91      1.216 
 H                     1.149    -0.29      2.165 
 C                     3.656    -1.136     0.009 
 H                     3.518    -1.098    -2.152 
 H                     3.515    -1.081     2.17 
 H                     4.699    -1.486     0.011 
 

 GradGradGradGradGradGradGradGradGradGradGradGradGradGradGradGradGradGrad
 Berny optimization.
 Initialization pass.
                           ----------------------------
                           !    Initial Parameters    !
                           ! (Angstroms and Degrees)  !
 --------------------------                            --------------------------
 ! Name  Definition              Value          Derivative Info.                !
 --------------------------------------------------------------------------------
 ! R1    R(1,2)                  1.4032         estimate D2E/DX2                !
 ! R2    R(1,6)                  1.392          estimate D2E/DX2                !
 ! R3    R(1,7)                  1.0871         estimate D2E/DX2                !
 ! R4    R(2,3)                  1.409          estimate D2E/DX2                !
 ! R5    R(2,16)                 1.5397         estimate D2E/DX2                !
 ! R6    R(3,4)                  1.4103         estimate D2E/DX2                !
 ! R7    R(3,14)                 1.3712         estimate D2E/DX2                !
 ! R8    R(4,5)                  1.3943         estimate D2E/DX2                !
 ! R9    R(4,10)                 1.5079         estimate D2E/DX2                !
 ! R10   R(5,6)                  1.3967         estimate D2E/DX2                !
 ! R11   R(5,8)                  1.0875         estimate D2E/DX2                !
 ! R12   R(6,9)                  1.0857         estimate D2E/DX2                !
 ! R13   R(10,11)                1.0974         estimate D2E/DX2                !
 ! R14   R(10,12)                1.0971         estimate D2E/DX2                !
 ! R15   R(10,13)                1.0948         estimate D2E/DX2                !
 ! R16   R(14,15)                0.9699         estimate D2E/DX2                !
 ! R17   R(16,17)                1.3954         estimate D2E/DX2                !
 ! R18   R(16,18)                1.3947         estimate D2E/DX2                !
 ! R19   R(17,19)                1.3952         estimate D2E/DX2                !
 ! R20   R(17,20)                1.0993         estimate D2E/DX2                !
 ! R21   R(18,21)                1.3949         estimate D2E/DX2                !
 ! R22   R(18,22)                1.1002         estimate D2E/DX2                !
 ! R23   R(19,23)                1.3943         estimate D2E/DX2                !
 ! R24   R(19,24)                1.1002         estimate D2E/DX2                !
 ! R25   R(21,23)                1.3951         estimate D2E/DX2                !
 ! R26   R(21,25)                1.1004         estimate D2E/DX2                !
 ! R27   R(23,26)                1.1002         estimate D2E/DX2                !
 ! A1    A(2,1,6)              121.7811         estimate D2E/DX2                !
 ! A2    A(2,1,7)              118.9222         estimate D2E/DX2                !
 ! A3    A(6,1,7)              119.2967         estimate D2E/DX2                !
 ! A4    A(1,2,3)              117.5042         estimate D2E/DX2                !
 ! A5    A(1,2,16)             119.8194         estimate D2E/DX2                !
 ! A6    A(3,2,16)             122.6764         estimate D2E/DX2                !
 ! A7    A(2,3,4)              121.7694         estimate D2E/DX2                !
 ! A8    A(2,3,14)             123.3657         estimate D2E/DX2                !
 ! A9    A(4,3,14)             114.8648         estimate D2E/DX2                !
 ! A10   A(3,4,5)              118.4612         estimate D2E/DX2                !
 ! A11   A(3,4,10)             119.6898         estimate D2E/DX2                !
 ! A12   A(5,4,10)             121.849          estimate D2E/DX2                !
 ! A13   A(4,5,6)              121.0842         estimate D2E/DX2                !
 ! A14   A(4,5,8)              118.8716         estimate D2E/DX2                !
 ! A15   A(6,5,8)              120.0441         estimate D2E/DX2                !
 ! A16   A(1,6,5)              119.3999         estimate D2E/DX2                !
 ! A17   A(1,6,9)              120.2365         estimate D2E/DX2                !
 ! A18   A(5,6,9)              120.3636         estimate D2E/DX2                !
 ! A19   A(4,10,11)            111.6234         estimate D2E/DX2                !
 ! A20   A(4,10,12)            111.5438         estimate D2E/DX2                !
 ! A21   A(4,10,13)            110.8169         estimate D2E/DX2                !
 ! A22   A(11,10,12)           106.383          estimate D2E/DX2                !
 ! A23   A(11,10,13)           108.1639         estimate D2E/DX2                !
 ! A24   A(12,10,13)           108.1132         estimate D2E/DX2                !
 ! A25   A(3,14,15)            109.4621         estimate D2E/DX2                !
 ! A26   A(2,16,17)            120.0046         estimate D2E/DX2                !
 ! A27   A(2,16,18)            120.0176         estimate D2E/DX2                !
 ! A28   A(17,16,18)           119.9777         estimate D2E/DX2                !
 ! A29   A(16,17,19)           119.9931         estimate D2E/DX2                !
 ! A30   A(16,17,20)           119.9831         estimate D2E/DX2                !
 ! A31   A(19,17,20)           120.0238         estimate D2E/DX2                !
 ! A32   A(16,18,21)           120.0293         estimate D2E/DX2                !
 ! A33   A(16,18,22)           120.0099         estimate D2E/DX2                !
 ! A34   A(21,18,22)           119.9608         estimate D2E/DX2                !
 ! A35   A(17,19,23)           119.9954         estimate D2E/DX2                !
 ! A36   A(17,19,24)           119.9609         estimate D2E/DX2                !
 ! A37   A(23,19,24)           120.0437         estimate D2E/DX2                !
 ! A38   A(18,21,23)           119.9704         estimate D2E/DX2                !
 ! A39   A(18,21,25)           120.0124         estimate D2E/DX2                !
 ! A40   A(23,21,25)           120.0172         estimate D2E/DX2                !
 ! A41   A(19,23,21)           120.034          estimate D2E/DX2                !
 ! A42   A(19,23,26)           119.9762         estimate D2E/DX2                !
 ! A43   A(21,23,26)           119.9897         estimate D2E/DX2                !
 ! D1    D(6,1,2,3)             -0.0035         estimate D2E/DX2                !
 ! D2    D(6,1,2,16)           179.9948         estimate D2E/DX2                !
 ! D3    D(7,1,2,3)            179.9751         estimate D2E/DX2                !
 ! D4    D(7,1,2,16)            -0.0267         estimate D2E/DX2                !
 ! D5    D(2,1,6,5)             -0.0008         estimate D2E/DX2                !
 ! D6    D(2,1,6,9)           -179.9783         estimate D2E/DX2                !
 ! D7    D(7,1,6,5)           -179.9793         estimate D2E/DX2                !
 ! D8    D(7,1,6,9)              0.0433         estimate D2E/DX2                !
 ! D9    D(1,2,3,4)              0.0062         estimate D2E/DX2                !
 ! D10   D(1,2,3,14)           179.9571         estimate D2E/DX2                !
 ! D11   D(16,2,3,4)          -179.992          estimate D2E/DX2                !
 ! D12   D(16,2,3,14)           -0.041          estimate D2E/DX2                !
 ! D13   D(1,2,16,17)          -89.9138         estimate D2E/DX2                !
 ! D14   D(1,2,16,18)           89.9759         estimate D2E/DX2                !
 ! D15   D(3,2,16,17)           90.0843         estimate D2E/DX2                !
 ! D16   D(3,2,16,18)          -90.0259         estimate D2E/DX2                !
 ! D17   D(2,3,4,5)             -0.0046         estimate D2E/DX2                !
 ! D18   D(2,3,4,10)           179.938          estimate D2E/DX2                !
 ! D19   D(14,3,4,5)          -179.9594         estimate D2E/DX2                !
 ! D20   D(14,3,4,10)           -0.0168         estimate D2E/DX2                !
 ! D21   D(2,3,14,15)           -0.0653         estimate D2E/DX2                !
 ! D22   D(4,3,14,15)          179.8887         estimate D2E/DX2                !
 ! D23   D(3,4,5,6)              0.0001         estimate D2E/DX2                !
 ! D24   D(3,4,5,8)            179.9604         estimate D2E/DX2                !
 ! D25   D(10,4,5,6)          -179.9412         estimate D2E/DX2                !
 ! D26   D(10,4,5,8)             0.0192         estimate D2E/DX2                !
 ! D27   D(3,4,10,11)          -59.4145         estimate D2E/DX2                !
 ! D28   D(3,4,10,12)           59.447          estimate D2E/DX2                !
 ! D29   D(3,4,10,13)          179.9572         estimate D2E/DX2                !
 ! D30   D(5,4,10,11)          120.5261         estimate D2E/DX2                !
 ! D31   D(5,4,10,12)         -120.6124         estimate D2E/DX2                !
 ! D32   D(5,4,10,13)           -0.1022         estimate D2E/DX2                !
 ! D33   D(4,5,6,1)              0.0026         estimate D2E/DX2                !
 ! D34   D(4,5,6,9)            179.98           estimate D2E/DX2                !
 ! D35   D(8,5,6,1)           -179.9573         estimate D2E/DX2                !
 ! D36   D(8,5,6,9)              0.0201         estimate D2E/DX2                !
 ! D37   D(2,16,17,19)         179.9949         estimate D2E/DX2                !
 ! D38   D(2,16,17,20)          -0.1245         estimate D2E/DX2                !
 ! D39   D(18,16,17,19)          0.1051         estimate D2E/DX2                !
 ! D40   D(18,16,17,20)        179.9857         estimate D2E/DX2                !
 ! D41   D(2,16,18,21)        -179.9499         estimate D2E/DX2                !
 ! D42   D(2,16,18,22)           0.062          estimate D2E/DX2                !
 ! D43   D(17,16,18,21)         -0.0602         estimate D2E/DX2                !
 ! D44   D(17,16,18,22)        179.9518         estimate D2E/DX2                !
 ! D45   D(16,17,19,23)         -0.0901         estimate D2E/DX2                !
 ! D46   D(16,17,19,24)        179.9518         estimate D2E/DX2                !
 ! D47   D(20,17,19,23)       -179.9706         estimate D2E/DX2                !
 ! D48   D(20,17,19,24)          0.0712         estimate D2E/DX2                !
 ! D49   D(16,18,21,23)          0.0002         estimate D2E/DX2                !
 ! D50   D(16,18,21,25)       -179.957          estimate D2E/DX2                !
 ! D51   D(22,18,21,23)        179.9882         estimate D2E/DX2                !
 ! D52   D(22,18,21,25)          0.031          estimate D2E/DX2                !
 ! D53   D(17,19,23,21)          0.0301         estimate D2E/DX2                !
 ! D54   D(17,19,23,26)        179.957          estimate D2E/DX2                !
 ! D55   D(24,19,23,21)        179.9882         estimate D2E/DX2                !
 ! D56   D(24,19,23,26)         -0.0849         estimate D2E/DX2                !
 ! D57   D(18,21,23,19)          0.0149         estimate D2E/DX2                !
 ! D58   D(18,21,23,26)       -179.912          estimate D2E/DX2                !
 ! D59   D(25,21,23,19)        179.9721         estimate D2E/DX2                !
 ! D60   D(25,21,23,26)          0.0453         estimate D2E/DX2                !
 --------------------------------------------------------------------------------
 Trust Radius=3.00D-01 FncErr=1.00D-07 GrdErr=1.00D-06 EigMax=2.50D+02 EigMin=1.00D-04
 Number of steps in this run=    140 maximum allowed number of steps=    156.
 GradGradGradGradGradGradGradGradGradGradGradGradGradGradGradGradGradGrad

                          Input orientation:                          
 ---------------------------------------------------------------------
 Center     Atomic      Atomic             Coordinates (Angstroms)
 Number     Number       Type             X           Y           Z
 ---------------------------------------------------------------------
      1          6           0       -0.725000    1.613000   -0.005000
      2          6           0       -0.450000    0.237000    0.001000
      3          6           0       -1.548000   -0.646000    0.004000
      4          6           0       -2.878000   -0.177000    0.001000
      5          6           0       -3.097000    1.200000   -0.005000
      6          6           0       -2.029000    2.100000   -0.008000
      7          1           0        0.105000    2.315000   -0.007000
      8          1           0       -4.120000    1.569000   -0.008000
      9          1           0       -2.213000    3.170000   -0.013000
     10          6           0       -4.018000   -1.164000    0.003000
     11          1           0       -3.983000   -1.824000   -0.873000
     12          1           0       -3.984000   -1.817000    0.884000
     13          1           0       -4.982000   -0.645000    0.001000
     14          8           0       -1.418000   -2.011000    0.009000
     15          1           0       -0.477000   -2.246000    0.009000
     16          6           0        1.010000   -0.252000    0.004000
     17          6           0        1.673000   -0.477000   -1.203000
     18          6           0        1.671000   -0.468000    1.213000
     19          6           0        2.996000   -0.920000   -1.200000
     20          1           0        1.152000   -0.307000   -2.156000
     21          6           0        2.994000   -0.910000    1.216000
     22          1           0        1.149000   -0.290000    2.165000
     23          6           0        3.656000   -1.136000    0.009000
     24          1           0        3.518000   -1.098000   -2.152000
     25          1           0        3.515000   -1.081000    2.170000
     26          1           0        4.699000   -1.486000    0.011000
 ---------------------------------------------------------------------
                    Distance matrix (angstroms):
                    1          2          3          4          5
     1  C    0.000000
     2  C    1.403224   0.000000
     3  C    2.404265   1.409007   0.000000
     4  C    2.799919   2.463043   1.410273   0.000000
     5  C    2.407686   2.816738   2.409813   1.394319   0.000000
     6  C    1.391975   2.442149   2.787834   2.430146   1.396651
     7  H    1.087064   2.150854   3.391173   3.886955   3.390580
     8  H    3.395286   3.904255   3.394341   2.142699   1.087520
     9  H    2.153708   3.422113   3.873547   3.412452   2.159264
    10  C    4.307626   3.833201   2.523732   1.507904   2.537085
    11  H    4.814661   4.182545   2.843596   2.167374   3.268485
    12  H    4.814177   4.181837   2.842488   2.166224   3.267932
    13  H    4.818781   4.617028   3.434001   2.155421   2.637667
    14  O    3.689691   2.447569   1.371186   2.344189   3.623501
    15  H    3.866986   2.483160   1.925374   3.169484   4.328916
    16  C    2.547260   1.539718   2.588165   3.888724   4.356126
    17  C    3.399075   2.542939   3.443872   4.717120   5.196194
    18  C    3.399250   2.542560   3.443156   4.716675   5.196111
    19  C    4.657248   3.828311   4.708782   6.041384   6.561027
    20  H    3.440397   2.741348   3.474266   4.572794   4.995183
    21  C    4.656966   3.827920   4.708333   6.041018   6.560733
    22  H    3.441248   2.741792   3.474258   4.573007   4.995750
    23  C    5.172075   4.329484   5.227020   6.604006   7.145635
    24  H    5.473772   4.707723   5.524219   6.811202   7.324523
    25  H    5.474108   4.707750   5.524016   6.811184   7.324761
    26  H    6.246906   5.429644   6.303226   7.689246   8.245755
                    6          7          8          9         10
     6  C    0.000000
     7  H    2.144803   0.000000
     8  H    2.157369   4.290355   0.000000
     9  H    1.085717   2.470665   2.489955   0.000000
    10  C    3.822295   5.394689   2.734925   4.694873   0.000000
    11  H    4.468122   5.881583   3.504204   5.367731   1.097361
    12  H    4.467726   5.881091   3.504163   5.367608   1.097144
    13  H    4.031788   5.885510   2.375904   4.713999   1.094834
    14  O    4.156192   4.586291   4.485253   5.241686   2.734492
    15  H    4.614836   4.598011   5.275032   5.687463   3.702626
    16  C    3.842859   2.721881   5.443628   4.700862   5.110042
    17  C    4.666236   3.418231   6.258833   5.460559   5.857806
    18  C    4.666419   3.418457   6.259065   5.461097   5.857750
    19  C    5.982632   4.499595   7.632394   6.728354   7.120600
    20  H    4.530598   3.548140   5.993936   5.291994   5.667859
    21  C    5.982375   4.499186   7.632340   6.728275   7.120676
    22  H    4.531414   3.548739   5.995012   5.293234   5.668863
    23  C    6.541499   4.951692   8.233073   7.279236   7.674053
    24  H    6.752270   5.281871   8.369508   7.458921   7.838347
    25  H    6.752657   5.282068   8.370150   7.459656   7.838933
    26  H    7.624024   5.962614   9.333175   8.333946   8.722949
                   11         12         13         14         15
    11  H    0.000000
    12  H    1.757014   0.000000
    13  H    1.775364   1.774620   0.000000
    14  O    2.718845   2.718017   3.816820   0.000000
    15  H    3.639786   3.639878   4.781034   0.969900   0.000000
    16  C    5.307576   5.306945   6.004875   2.998214   2.487414
    17  C    5.823542   6.176797   6.765121   3.657374   3.036578
    18  C    6.177204   5.822978   6.764812   3.656827   3.037236
    19  C    7.044898   7.339487   8.072578   4.704823   3.909180
    20  H    5.505961   6.156314   6.510979   3.767724   3.331754
    21  C    7.340153   7.044527   8.072362   4.704763   3.910190
    22  H    6.157924   5.506394   6.511381   3.768244   3.334389
    23  C    7.720466   7.720038   8.651947   5.148893   4.279461
    24  H    7.643816   8.124916   8.780126   5.465125   4.684853
    25  H    8.126002   7.643984   8.780300   5.465282   4.686492
    26  H    8.733431   8.733051   9.717466   6.139488   5.231499
                   16         17         18         19         20
    16  C    0.000000
    17  C    1.395365   0.000000
    18  C    1.394725   2.416018   0.000000
    19  C    2.416617   1.395201   2.789713   0.000000
    20  H    2.165361   1.099341   3.412542   2.165650   0.000000
    21  C    2.416229   2.789998   1.394884   2.416022   3.889339
    22  H    2.165799   3.413645   1.100215   3.889927   4.321034
    23  C    2.789766   2.415681   2.415795   1.394251   3.412401
    24  H    3.413813   2.165702   3.889927   1.100215   2.494725
    25  H    3.413769   3.890361   2.166092   3.413529   4.989701
    26  H    3.889926   3.412998   3.413197   2.164968   4.320548
                   21         22         23         24         25
    21  C    0.000000
    22  H    2.165416   0.000000
    23  C    1.395052   3.413078   0.000000
    24  H    3.413699   4.990142   2.165735   0.000000
    25  H    1.100363   2.494727   2.166293   4.322034   0.000000
    26  H    2.165831   4.321184   1.100160   2.494769   2.495428
                   26
    26  H    0.000000
 Stoichiometry    C13H12O
 Framework group  C1[X(C13H12O)]
 Deg. of freedom    72
 Full point group                 C1      NOp   1
 Largest Abelian subgroup         C1      NOp   1
 Largest concise Abelian subgroup C1      NOp   1
                         Standard orientation:                         
 ---------------------------------------------------------------------
 Center     Atomic      Atomic             Coordinates (Angstroms)
 Number     Number       Type             X           Y           Z
 ---------------------------------------------------------------------
      1          6           0       -0.804487    1.769356   -0.000096
      2          6           0       -0.309541    0.456320    0.000264
      3          6           0       -1.249460   -0.593373    0.000618
      4          6           0       -2.637996   -0.346722    0.000485
      5          6           0       -3.077849    0.976401    0.000087
      6          6           0       -2.170294    2.037993   -0.000178
      7          1           0       -0.099593    2.596902    0.000041
      8          1           0       -4.147216    1.174269   -0.000676
      9          1           0       -2.525724    3.063882   -0.000814
     10          6           0       -3.602459   -1.505853   -0.000539
     11          1           0       -3.461900   -2.148086   -0.879163
     12          1           0       -3.461573   -2.147965    0.877851
     13          1           0       -4.637983   -1.150396    0.000246
     14          8           0       -0.899376   -1.919115    0.000132
     15          1           0        0.067303   -1.998078   -0.001514
     16          6           0        1.210517    0.211060    0.000219
     17          6           0        1.899583    0.101339   -1.208165
     18          6           0        1.899517    0.100786    1.207852
     19          6           0        3.276987   -0.120796   -1.207924
     20          1           0        1.356554    0.188008   -2.160089
     21          6           0        3.276759   -0.120361    1.208097
     22          1           0        1.356859    0.188006    2.160946
     23          6           0        3.965000   -0.231231   -0.000291
     24          1           0        3.819645   -0.208015   -2.161018
     25          1           0        3.819952   -0.208021    2.161017
     26          1           0        5.051013   -0.407098   -0.000469
 ---------------------------------------------------------------------
 Rotational constants (GHZ):           1.5895676           0.4144428           0.3725593
 Standard basis: 6-31G(2d) (6D, 7F)
 There are   318 symmetry adapted cartesian basis functions of A   symmetry.
 There are   318 symmetry adapted basis functions of A   symmetry.
   318 basis functions,   524 primitive gaussians,   318 cartesian basis functions
    49 alpha electrons       49 beta electrons
       nuclear repulsion energy       807.2425068754 Hartrees.
 NAtoms=   26 NActive=   26 NUniq=   26 SFac= 1.00D+00 NAtFMM=   60 NAOKFM=F Big=F
 Integral buffers will be    131072 words long.
 Raffenetti 2 integral format.
 Two-electron integral symmetry is turned on.
 ------------------------------------------------------------------------------
 Polarizable Continuum Model (PCM)
 =================================
 Model                : PCM.
 Atomic radii         : SMD-Coulomb.
 Polarization charges : Total charges.
 Charge compensation  : None.
 Solution method      : On-the-fly selection.
 Cavity type          : VdW (van der Waals Surface) (Alpha=1.000).
 Cavity algorithm     : GePol (No added spheres)
                        Default sphere list used, NSphG=   26.
                        Lebedev-Laikov grids with approx.  5.0 points / Ang**2.
                        Smoothing algorithm: York/Karplus (Gamma=1.0000).
                        Polarization charges: spherical gaussians, with
                                              point-specific exponents (IZeta= 3).
                        Self-potential: point-specific (ISelfS= 7).
                        Self-field    : sphere-specific E.n sum rule (ISelfD= 2).
 1st derivatives      : Analytical E(r).r(x)/FMM algorithm (CHGder, D1EAlg=3).
                        Cavity 1st derivative terms included.
 Solvent              : Toluene, Eps=   2.374100 Eps(inf)=   2.238315
 ------------------------------------------------------------------------------
 ------------------------------------------------------------------------------
 Atomic radii for non-electrostatic terms: SMD-CDS.
 ------------------------------------------------------------------------------
 Nuclear repulsion after PCM non-electrostatic terms =      807.2324479074 Hartrees.
 One-electron integrals computed using PRISM.
 NBasis=   318 RedAO= T EigKep=  1.22D-04  NBF=   318
 NBsUse=   318 1.00D-06 EigRej= -1.00D+00 NBFU=   318
 ExpMin= 1.61D-01 ExpMax= 5.48D+03 ExpMxC= 8.25D+02 IAcc=3 IRadAn=         5 AccDes= 0.00D+00
 Harris functional with IExCor=  402 and IRadAn=       5 diagonalized for initial guess.
 HarFok:  IExCor=  402 AccDes= 0.00D+00 IRadAn=         5 IDoV= 1 UseB2=F ITyADJ=14
 ICtDFT=  3500011 ScaDFX=  1.000000  1.000000  1.000000  1.000000
 FoFCou: FMM=F IPFlag=           0 FMFlag=      100000 FMFlg1=           0
         NFxFlg=           0 DoJE=T BraDBF=F KetDBF=T FulRan=T
         wScrn=  0.000000 ICntrl=       500 IOpCl=  0 I1Cent=   200000004 NGrid=           0
         NMat0=    1 NMatS0=      1 NMatT0=    0 NMatD0=    1 NMtDS0=    0 NMtDT0=    0
 Petite list used in FoFCou.
 Requested convergence on RMS density matrix=1.00D-08 within 128 cycles.
 Requested convergence on MAX density matrix=1.00D-06.
 Requested convergence on             energy=1.00D-06.
 No special actions if energy rises.
 Inv3:  Mode=1 IEnd=    12904428.
 Iteration    1 A*A^-1 deviation from unit magnitude is 4.33D-15 for   2069.
 Iteration    1 A*A^-1 deviation from orthogonality  is 1.74D-15 for   2072   1838.
 Iteration    1 A^-1*A deviation from unit magnitude is 4.11D-15 for   2069.
 Iteration    1 A^-1*A deviation from orthogonality  is 1.59D-15 for   2072   1838.
 Error on total polarization charges =  0.02496
 SCF Done:  E(RB3LYP) =  -577.857988981     A.U. after   13 cycles
            NFock= 13  Conv=0.25D-08     -V/T= 2.0081
 SMD-CDS (non-electrostatic) energy       (kcal/mol) =      -6.31
 (included in total energy above)

 **********************************************************************

            Population analysis using the SCF Density.

 **********************************************************************

 Orbital symmetries:
       Occupied  (A) (A) (A) (A) (A) (A) (A) (A) (A) (A) (A) (A)
                 (A) (A) (A) (A) (A) (A) (A) (A) (A) (A) (A) (A)
                 (A) (A) (A) (A) (A) (A) (A) (A) (A) (A) (A) (A)
                 (A) (A) (A) (A) (A) (A) (A) (A) (A) (A) (A) (A)
                 (A)
       Virtual   (A) (A) (A) (A) (A) (A) (A) (A) (A) (A) (A) (A)
                 (A) (A) (A) (A) (A) (A) (A) (A) (A) (A) (A) (A)
                 (A) (A) (A) (A) (A) (A) (A) (A) (A) (A) (A) (A)
                 (A) (A) (A) (A) (A) (A) (A) (A) (A) (A) (A) (A)
                 (A) (A) (A) (A) (A) (A) (A) (A) (A) (A) (A) (A)
                 (A) (A) (A) (A) (A) (A) (A) (A) (A) (A) (A) (A)
                 (A) (A) (A) (A) (A) (A) (A) (A) (A) (A) (A) (A)
                 (A) (A) (A) (A) (A) (A) (A) (A) (A) (A) (A) (A)
                 (A) (A) (A) (A) (A) (A) (A) (A) (A) (A) (A) (A)
                 (A) (A) (A) (A) (A) (A) (A) (A) (A) (A) (A) (A)
                 (A) (A) (A) (A) (A) (A) (A) (A) (A) (A) (A) (A)
                 (A) (A) (A) (A) (A) (A) (A) (A) (A) (A) (A) (A)
                 (A) (A) (A) (A) (A) (A) (A) (A) (A) (A) (A) (A)
                 (A) (A) (A) (A) (A) (A) (A) (A) (A) (A) (A) (A)
                 (A) (A) (A) (A) (A) (A) (A) (A) (A) (A) (A) (A)
                 (A) (A) (A) (A) (A) (A) (A) (A) (A) (A) (A) (A)
                 (A) (A) (A) (A) (A) (A) (A) (A) (A) (A) (A) (A)
                 (A) (A) (A) (A) (A) (A) (A) (A) (A) (A) (A) (A)
                 (A) (A) (A) (A) (A) (A) (A) (A) (A) (A) (A) (A)
                 (A) (A) (A) (A) (A) (A) (A) (A) (A) (A) (A) (A)
                 (A) (A) (A) (A) (A) (A) (A) (A) (A) (A) (A) (A)
                 (A) (A) (A) (A) (A) (A) (A) (A) (A) (A) (A) (A)
                 (A) (A) (A) (A) (A)
 The electronic state is 1-A.
 Alpha  occ. eigenvalues --  -19.16137 -10.23681 -10.19921 -10.18978 -10.18912
 Alpha  occ. eigenvalues --  -10.18900 -10.18865 -10.18842 -10.18810 -10.18253
 Alpha  occ. eigenvalues --  -10.17803 -10.17603 -10.17078 -10.16931  -1.04982
 Alpha  occ. eigenvalues --   -0.86142  -0.84103  -0.77655  -0.74884  -0.74528
 Alpha  occ. eigenvalues --   -0.71630  -0.67417  -0.62474  -0.60317  -0.58767
 Alpha  occ. eigenvalues --   -0.57114  -0.53248  -0.50800  -0.47830  -0.46133
 Alpha  occ. eigenvalues --   -0.45204  -0.44415  -0.41993  -0.41859  -0.41635
 Alpha  occ. eigenvalues --   -0.40313  -0.38520  -0.37977  -0.37475  -0.36449
 Alpha  occ. eigenvalues --   -0.36046  -0.34428  -0.33588  -0.32473  -0.32090
 Alpha  occ. eigenvalues --   -0.25362  -0.25200  -0.23681  -0.21118
 Alpha virt. eigenvalues --   -0.00633  -0.00509   0.00796   0.02006   0.08805
 Alpha virt. eigenvalues --    0.09626   0.11385   0.13460   0.14228   0.15270
 Alpha virt. eigenvalues --    0.15580   0.15628   0.16285   0.18299   0.18505
 Alpha virt. eigenvalues --    0.18963   0.19520   0.20737   0.22716   0.24980
 Alpha virt. eigenvalues --    0.26090   0.28382   0.30191   0.30840   0.32863
 Alpha virt. eigenvalues --    0.33927   0.34119   0.35640   0.38193   0.41372
 Alpha virt. eigenvalues --    0.42491   0.43484   0.45574   0.45796   0.48055
 Alpha virt. eigenvalues --    0.49359   0.49398   0.50687   0.51066   0.51130
 Alpha virt. eigenvalues --    0.51577   0.51617   0.52026   0.52265   0.54020
 Alpha virt. eigenvalues --    0.54992   0.55031   0.55230   0.55908   0.58622
 Alpha virt. eigenvalues --    0.59030   0.60514   0.61314   0.61954   0.63010
 Alpha virt. eigenvalues --    0.63870   0.64881   0.65982   0.68599   0.69815
 Alpha virt. eigenvalues --    0.71290   0.72061   0.73517   0.74051   0.74928
 Alpha virt. eigenvalues --    0.76116   0.76905   0.76953   0.77304   0.77557
 Alpha virt. eigenvalues --    0.78418   0.79181   0.79896   0.80665   0.80926
 Alpha virt. eigenvalues --    0.81398   0.83502   0.84990   0.85809   0.86694
 Alpha virt. eigenvalues --    0.87246   0.88533   0.89282   0.89924   0.90445
 Alpha virt. eigenvalues --    0.90543   0.90955   0.93772   0.94576   0.94849
 Alpha virt. eigenvalues --    0.95780   0.97278   0.98021   0.99998   1.01009
 Alpha virt. eigenvalues --    1.02168   1.02348   1.04708   1.04794   1.05542
 Alpha virt. eigenvalues --    1.07632   1.13245   1.14015   1.15689   1.16136
 Alpha virt. eigenvalues --    1.19807   1.20480   1.21331   1.25238   1.26303
 Alpha virt. eigenvalues --    1.29495   1.31597   1.32146   1.33499   1.34047
 Alpha virt. eigenvalues --    1.37363   1.38587   1.41408   1.42075   1.42634
 Alpha virt. eigenvalues --    1.45959   1.46222   1.46235   1.47864   1.49576
 Alpha virt. eigenvalues --    1.51001   1.52201   1.52345   1.53602   1.54320
 Alpha virt. eigenvalues --    1.56335   1.57501   1.58587   1.60555   1.61899
 Alpha virt. eigenvalues --    1.63525   1.63843   1.67051   1.69048   1.70799
 Alpha virt. eigenvalues --    1.71193   1.74167   1.74893   1.75428   1.76574
 Alpha virt. eigenvalues --    1.77798   1.79199   1.82258   1.86862   1.89674
 Alpha virt. eigenvalues --    1.90510   1.93265   1.95548   1.98257   2.02766
 Alpha virt. eigenvalues --    2.04129   2.07191   2.08815   2.09032   2.10263
 Alpha virt. eigenvalues --    2.14770   2.16754   2.18630   2.18655   2.23672
 Alpha virt. eigenvalues --    2.24541   2.26101   2.33421   2.34782   2.39834
 Alpha virt. eigenvalues --    2.41846   2.45936   2.46288   2.52581   2.59476
 Alpha virt. eigenvalues --    2.90340   2.95771   2.97980   3.02877   3.24619
 Alpha virt. eigenvalues --    3.31591   3.41605   4.02340   4.09517   4.11178
 Alpha virt. eigenvalues --    4.14698   4.16026   4.18100   4.19969   4.21335
 Alpha virt. eigenvalues --    4.23392   4.24202   4.24782   4.27672   4.29193
 Alpha virt. eigenvalues --    4.29246   4.31378   4.34712   4.34733   4.35497
 Alpha virt. eigenvalues --    4.36851   4.37272   4.38244   4.38944   4.39050
 Alpha virt. eigenvalues --    4.40735   4.41166   4.42247   4.43018   4.43109
 Alpha virt. eigenvalues --    4.44988   4.45781   4.46823   4.47426   4.47506
 Alpha virt. eigenvalues --    4.48116   4.49404   4.50415   4.50799   4.52748
 Alpha virt. eigenvalues --    4.54006   4.57345   4.58392   4.59202   4.61846
 Alpha virt. eigenvalues --    4.62090   4.62628   4.68220   4.71043   4.72624
 Alpha virt. eigenvalues --    4.75403   4.78415   4.79065   4.83134   4.88555
 Alpha virt. eigenvalues --    4.91179   4.92312   4.94428   4.96064   4.96882
 Alpha virt. eigenvalues --    4.97645   5.00133   5.01815   5.02890   5.06325
 Alpha virt. eigenvalues --    5.10006   5.10954   5.14215   5.17134   5.20405
 Alpha virt. eigenvalues --    5.21625   5.34112   6.10712   6.37454   6.70922
 Alpha virt. eigenvalues --    9.38850   9.44730  10.07250  10.18461  10.34148
 Alpha virt. eigenvalues --   10.54189  11.07556  11.12487  11.46703  11.48709
 Alpha virt. eigenvalues --   11.69262  12.33694  12.69373  13.11615
          Condensed to atoms (all electrons):
               1          2          3          4          5          6
     1  C    5.026545   0.490551   0.022639  -0.053890   0.012454   0.500715
     2  C    0.490551   4.903125   0.472285  -0.029439  -0.054746   0.009170
     3  C    0.022639   0.472285   4.577193   0.463560   0.000237  -0.053024
     4  C   -0.053890  -0.029439   0.463560   4.571385   0.552953   0.014311
     5  C    0.012454  -0.054746   0.000237   0.552953   5.007881   0.501286
     6  C    0.500715   0.009170  -0.053024   0.014311   0.501286   4.896789
     7  H    0.360077  -0.048459   0.004189   0.000874   0.004415  -0.047106
     8  H    0.004461   0.000424   0.006508  -0.042680   0.358340  -0.053028
     9  H   -0.045910   0.004472   0.000799   0.003776  -0.047128   0.364863
    10  C    0.000724   0.007893  -0.046192   0.351642  -0.063349   0.005864
    11  H   -0.000005   0.000007  -0.002888  -0.015915   0.000756  -0.000095
    12  H   -0.000005   0.000007  -0.002878  -0.015935   0.000759  -0.000096
    13  H   -0.000011  -0.000071   0.002276  -0.018518  -0.003208   0.000192
    14  O    0.003837  -0.061261   0.429737  -0.053041   0.002275  -0.000016
    15  H    0.000053  -0.007934  -0.051719   0.007788  -0.000006  -0.000065
    16  C   -0.053484   0.310337  -0.044021   0.003804   0.000685   0.003787
    17  C    0.000381  -0.045105  -0.001013  -0.000041   0.000008  -0.000053
    18  C    0.000371  -0.045074  -0.001001  -0.000041   0.000008  -0.000055
    19  C   -0.000034   0.003611   0.000107   0.000005  -0.000000   0.000004
    20  H    0.001332  -0.003152   0.000847  -0.000059  -0.000012  -0.000079
    21  C   -0.000035   0.003617   0.000108   0.000005  -0.000000   0.000004
    22  H    0.001333  -0.003164   0.000845  -0.000058  -0.000012  -0.000079
    23  C    0.000011   0.000410   0.000001  -0.000000  -0.000000  -0.000000
    24  H   -0.000001  -0.000097  -0.000002  -0.000000   0.000000  -0.000000
    25  H   -0.000001  -0.000097  -0.000002  -0.000000   0.000000  -0.000000
    26  H   -0.000000   0.000004  -0.000000   0.000000  -0.000000   0.000000
               7          8          9         10         11         12
     1  C    0.360077   0.004461  -0.045910   0.000724  -0.000005  -0.000005
     2  C   -0.048459   0.000424   0.004472   0.007893   0.000007   0.000007
     3  C    0.004189   0.006508   0.000799  -0.046192  -0.002888  -0.002878
     4  C    0.000874  -0.042680   0.003776   0.351642  -0.015915  -0.015935
     5  C    0.004415   0.358340  -0.047128  -0.063349   0.000756   0.000759
     6  C   -0.047106  -0.053028   0.364863   0.005864  -0.000095  -0.000096
     7  H    0.600301  -0.000191  -0.007309   0.000015  -0.000000  -0.000000
     8  H   -0.000191   0.608251  -0.006754  -0.011993   0.000064   0.000066
     9  H   -0.007309  -0.006754   0.603832  -0.000173   0.000003   0.000003
    10  C    0.000015  -0.011993  -0.000173   5.310082   0.355363   0.355289
    11  H   -0.000000   0.000064   0.000003   0.355363   0.540263  -0.032435
    12  H   -0.000000   0.000066   0.000003   0.355289  -0.032435   0.540367
    13  H   -0.000000   0.007051  -0.000012   0.353117  -0.026229  -0.026251
    14  O   -0.000035  -0.000026   0.000001  -0.002329   0.003479   0.003477
    15  H   -0.000024   0.000006  -0.000000  -0.000657  -0.000055  -0.000056
    16  C   -0.003957   0.000001  -0.000088  -0.000116   0.000007   0.000007
    17  C    0.001486   0.000000  -0.000002  -0.000002  -0.000000   0.000000
    18  C    0.001486   0.000000  -0.000002  -0.000002   0.000000  -0.000000
    19  C   -0.000084   0.000000  -0.000000  -0.000000   0.000000  -0.000000
    20  H    0.000214  -0.000000   0.000001   0.000001   0.000000   0.000000
    21  C   -0.000084   0.000000  -0.000000  -0.000000  -0.000000   0.000000
    22  H    0.000215  -0.000000   0.000001   0.000001   0.000000   0.000000
    23  C   -0.000013  -0.000000   0.000000   0.000000   0.000000   0.000000
    24  H    0.000001  -0.000000   0.000000   0.000000   0.000000  -0.000000
    25  H    0.000001  -0.000000   0.000000   0.000000  -0.000000   0.000000
    26  H   -0.000000  -0.000000   0.000000  -0.000000   0.000000   0.000000
              13         14         15         16         17         18
     1  C   -0.000011   0.003837   0.000053  -0.053484   0.000381   0.000371
     2  C   -0.000071  -0.061261  -0.007934   0.310337  -0.045105  -0.045074
     3  C    0.002276   0.429737  -0.051719  -0.044021  -0.001013  -0.001001
     4  C   -0.018518  -0.053041   0.007788   0.003804  -0.000041  -0.000041
     5  C   -0.003208   0.002275  -0.000006   0.000685   0.000008   0.000008
     6  C    0.000192  -0.000016  -0.000065   0.003787  -0.000053  -0.000055
     7  H   -0.000000  -0.000035  -0.000024  -0.003957   0.001486   0.001486
     8  H    0.007051  -0.000026   0.000006   0.000001   0.000000   0.000000
     9  H   -0.000012   0.000001  -0.000000  -0.000088  -0.000002  -0.000002
    10  C    0.353117  -0.002329  -0.000657  -0.000116  -0.000002  -0.000002
    11  H   -0.026229   0.003479  -0.000055   0.000007  -0.000000   0.000000
    12  H   -0.026251   0.003477  -0.000056   0.000007   0.000000  -0.000000
    13  H    0.542310   0.000458  -0.000002  -0.000000   0.000000   0.000000
    14  O    0.000458   7.999763   0.259425  -0.004309  -0.000244  -0.000244
    15  H   -0.000002   0.259425   0.369744   0.017535   0.004253   0.004229
    16  C   -0.000000  -0.004309   0.017535   4.649264   0.519314   0.519375
    17  C    0.000000  -0.000244   0.004253   0.519314   5.010721  -0.004429
    18  C    0.000000  -0.000244   0.004229   0.519375  -0.004429   5.010342
    19  C    0.000000  -0.000020  -0.000059   0.008368   0.486245  -0.052585
    20  H   -0.000000  -0.000078   0.000024  -0.049986   0.365190   0.005691
    21  C    0.000000  -0.000020  -0.000061   0.008434  -0.052661   0.486326
    22  H   -0.000000  -0.000079   0.000025  -0.050071   0.005686   0.365241
    23  C   -0.000000   0.000009  -0.000134  -0.044854   0.007274   0.007207
    24  H   -0.000000   0.000000  -0.000001   0.004389  -0.046302   0.000861
    25  H   -0.000000   0.000000  -0.000002   0.004387   0.000861  -0.046254
    26  H    0.000000   0.000000  -0.000000   0.000850   0.004450   0.004447
              19         20         21         22         23         24
     1  C   -0.000034   0.001332  -0.000035   0.001333   0.000011  -0.000001
     2  C    0.003611  -0.003152   0.003617  -0.003164   0.000410  -0.000097
     3  C    0.000107   0.000847   0.000108   0.000845   0.000001  -0.000002
     4  C    0.000005  -0.000059   0.000005  -0.000058  -0.000000  -0.000000
     5  C   -0.000000  -0.000012  -0.000000  -0.000012  -0.000000   0.000000
     6  C    0.000004  -0.000079   0.000004  -0.000079  -0.000000  -0.000000
     7  H   -0.000084   0.000214  -0.000084   0.000215  -0.000013   0.000001
     8  H    0.000000  -0.000000   0.000000  -0.000000  -0.000000  -0.000000
     9  H   -0.000000   0.000001  -0.000000   0.000001   0.000000   0.000000
    10  C   -0.000000   0.000001  -0.000000   0.000001   0.000000   0.000000
    11  H    0.000000   0.000000  -0.000000   0.000000   0.000000   0.000000
    12  H   -0.000000   0.000000   0.000000   0.000000   0.000000  -0.000000
    13  H    0.000000  -0.000000   0.000000  -0.000000  -0.000000  -0.000000
    14  O   -0.000020  -0.000078  -0.000020  -0.000079   0.000009   0.000000
    15  H   -0.000059   0.000024  -0.000061   0.000025  -0.000134  -0.000001
    16  C    0.008368  -0.049986   0.008434  -0.050071  -0.044854   0.004389
    17  C    0.486245   0.365190  -0.052661   0.005686   0.007274  -0.046302
    18  C   -0.052585   0.005691   0.486326   0.365241   0.007207   0.000861
    19  C    4.868825  -0.050812   0.014189   0.000468   0.531529   0.366397
    20  H   -0.050812   0.587461   0.000470  -0.000145   0.004852  -0.007261
    21  C    0.014189   0.000470   4.869705  -0.050832   0.531032   0.004413
    22  H    0.000468  -0.000145  -0.050832   0.587668   0.004850   0.000019
    23  C    0.531529   0.004852   0.531032   0.004850   4.842687  -0.050842
    24  H    0.366397  -0.007261   0.004413   0.000019  -0.050842   0.592263
    25  H    0.004400   0.000019   0.366364  -0.007269  -0.050751  -0.000155
    26  H   -0.049630  -0.000147  -0.049634  -0.000146   0.367488  -0.007056
              25         26
     1  C   -0.000001  -0.000000
     2  C   -0.000097   0.000004
     3  C   -0.000002  -0.000000
     4  C   -0.000000   0.000000
     5  C    0.000000  -0.000000
     6  C   -0.000000   0.000000
     7  H    0.000001  -0.000000
     8  H   -0.000000  -0.000000
     9  H    0.000000   0.000000
    10  C    0.000000  -0.000000
    11  H   -0.000000   0.000000
    12  H    0.000000   0.000000
    13  H   -0.000000   0.000000
    14  O    0.000000   0.000000
    15  H   -0.000002  -0.000000
    16  C    0.004387   0.000850
    17  C    0.000861   0.004450
    18  C   -0.046254   0.004447
    19  C    0.004400  -0.049630
    20  H    0.000019  -0.000147
    21  C    0.366364  -0.049634
    22  H   -0.007269  -0.000146
    23  C   -0.050751   0.367488
    24  H   -0.000155  -0.007056
    25  H    0.592080  -0.007030
    26  H   -0.007030   0.593516
 Mulliken charges:
               1
     1  C   -0.272109
     2  C    0.092684
     3  C    0.221413
     4  C    0.259516
     5  C   -0.273595
     6  C   -0.143290
     7  H    0.133987
     8  H    0.129500
     9  H    0.129627
    10  C   -0.615177
    11  H    0.177678
    12  H    0.177683
    13  H    0.168898
    14  O   -0.580758
    15  H    0.397695
    16  C    0.200341
    17  C   -0.256016
    18  C   -0.255896
    19  C   -0.130925
    20  H    0.145628
    21  C   -0.131340
    22  H    0.145504
    23  C   -0.150757
    24  H    0.143374
    25  H    0.143447
    26  H    0.142888
 Sum of Mulliken charges =  -0.00000
 Mulliken charges with hydrogens summed into heavy atoms:
               1
     1  C   -0.138122
     2  C    0.092684
     3  C    0.221413
     4  C    0.259516
     5  C   -0.144095
     6  C   -0.013663
    10  C   -0.090918
    14  O   -0.183064
    16  C    0.200341
    17  C   -0.110389
    18  C   -0.110392
    19  C    0.012450
    21  C    0.012107
    23  C   -0.007869
 Electronic spatial extent (au):  <R**2>=           3074.6528
 Charge=             -0.0000 electrons
 Dipole moment (field-independent basis, Debye):
    X=              1.6729    Y=              0.0276    Z=             -0.0031  Tot=              1.6732
 Quadrupole moment (field-independent basis, Debye-Ang):
   XX=            -71.4644   YY=            -81.5310   ZZ=            -78.3848
   XY=             -3.2242   XZ=              0.0026   YZ=              0.0046
 Traceless Quadrupole moment (field-independent basis, Debye-Ang):
   XX=              5.6623   YY=             -4.4043   ZZ=             -1.2581
   XY=             -3.2242   XZ=              0.0026   YZ=              0.0046
 Octapole moment (field-independent basis, Debye-Ang**2):
  XXX=              9.9200  YYY=              1.0990  ZZZ=             -0.0036  XYY=             -6.6161
  XXY=             -6.4829  XXZ=             -0.0002  XZZ=             15.0900  YZZ=             -6.9529
  YYZ=             -0.0218  XYZ=              0.0052
 Hexadecapole moment (field-independent basis, Debye-Ang**3):
 XXXX=          -2879.2220 YYYY=           -659.4527 ZZZZ=           -317.1129 XXXY=            -37.2892
 XXXZ=              0.0283 YYYX=            -19.1631 YYYZ=              0.0227 ZZZX=              0.0154
 ZZZY=              0.0045 XXYY=           -659.0690 XXZZ=           -561.6795 YYZZ=           -181.2216
 XXYZ=             -0.0202 YYXZ=              0.0224 ZZXY=              8.6035
 N-N= 8.072324479074D+02 E-N=-2.956560240444D+03  KE= 5.731880850670D+02
 D1PCM: PCM CHGder 1st derivatives, ID1Alg=3 FixD1E=F DoIter=F DoCFld=F I1PDM=0.
 Calling FoFJK, ICntrl=      2127 FMM=F ISym2X=0 I1Cent= 0 IOpClX= 0 NMat=1 NMatS=1 NMatT=0.
 ***** Axes restored to original set *****
 -------------------------------------------------------------------
 Center     Atomic                   Forces (Hartrees/Bohr)
 Number     Number              X              Y              Z
 -------------------------------------------------------------------
      1        6           0.000216411    0.000551262    0.000033953
      2        6           0.010627943   -0.001850805    0.000041744
      3        6           0.001174062   -0.004154355   -0.000054135
      4        6           0.001334026    0.000802324   -0.000122729
      5        6           0.003565841   -0.000366240   -0.000018548
      6        6          -0.000001913   -0.004201870    0.000013185
      7        1           0.001249604   -0.000562492   -0.000017761
      8        1          -0.000546659    0.000070621    0.000017579
      9        1           0.000064270    0.000760511    0.000010498
     10        6           0.000861726    0.000781600    0.000079483
     11        1           0.000050630   -0.000099318   -0.000218830
     12        1           0.000014260   -0.000271657    0.000302439
     13        1          -0.000095703    0.000154655   -0.000053907
     14        8           0.004971668    0.004119105    0.000000216
     15        1          -0.000904971    0.002394379    0.000010936
     16        6          -0.031240083    0.005826313   -0.000509828
     17        6           0.001439336   -0.001598673   -0.008455882
     18        6           0.001360395   -0.001324956    0.009553660
     19        6           0.003488473   -0.000755434   -0.006301177
     20        1           0.003130957   -0.000952868    0.007242077
     21        6           0.004026235   -0.001042252    0.005751581
     22        1           0.003298504   -0.001119777   -0.007724072
     23        6           0.007713408   -0.002608674    0.000488034
     24        1          -0.004003599    0.001425489    0.006987234
     25        1          -0.004084388    0.001436707   -0.007070520
     26        1          -0.007710433    0.002586405    0.000014768
 -------------------------------------------------------------------
 Cartesian Forces:  Max     0.031240083 RMS     0.004946086

 GradGradGradGradGradGradGradGradGradGradGradGradGradGradGradGradGradGrad
 Berny optimization.
 FormGI is forming the generalized inverse of G from B-inverse, IUseBI=4.
 Internal  Forces:  Max     0.022005873 RMS     0.003253251
 Search for a local minimum.
 Step number   1 out of a maximum of  140
 All quantities printed in internal units (Hartrees-Bohrs-Radians)
 Mixed Optimization -- RFO/linear search
 Second derivative matrix not updated -- first step.
 ITU=  0
     Eigenvalues ---    0.00241   0.00661   0.01434   0.01500   0.01565
     Eigenvalues ---    0.01971   0.02001   0.02073   0.02075   0.02116
     Eigenvalues ---    0.02148   0.02151   0.02152   0.02153   0.02155
     Eigenvalues ---    0.02156   0.02158   0.02158   0.02159   0.02161
     Eigenvalues ---    0.02169   0.07105   0.07117   0.16000   0.16000
     Eigenvalues ---    0.16000   0.16000   0.16000   0.16000   0.16000
     Eigenvalues ---    0.16000   0.16000   0.16000   0.16000   0.16000
     Eigenvalues ---    0.22000   0.22000   0.22086   0.23445   0.23486
     Eigenvalues ---    0.24916   0.25000   0.25000   0.25000   0.25000
     Eigenvalues ---    0.28544   0.31562   0.33642   0.33658   0.33658
     Eigenvalues ---    0.33664   0.33755   0.33976   0.34000   0.34260
     Eigenvalues ---    0.35101   0.35154   0.35312   0.41101   0.41617
     Eigenvalues ---    0.42116   0.42333   0.44390   0.45507   0.45945
     Eigenvalues ---    0.46419   0.46445   0.46479   0.46554   0.46656
     Eigenvalues ---    0.50749   0.53397
 RFO step:  Lambda=-4.58200255D-03 EMin= 2.40561058D-03
 Linear search not attempted -- first point.
 Iteration  1 RMS(Cart)=  0.04442066 RMS(Int)=  0.00053606
 Iteration  2 RMS(Cart)=  0.00067715 RMS(Int)=  0.00001570
 Iteration  3 RMS(Cart)=  0.00000016 RMS(Int)=  0.00001570
 Variable       Old X    -DE/DX   Delta X   Delta X   Delta X     New X
                                 (Linear)    (Quad)   (Total)
    R1        2.65171  -0.00379   0.00000  -0.00849  -0.00846   2.64325
    R2        2.63045  -0.00235   0.00000  -0.00462  -0.00462   2.62584
    R3        2.05425   0.00059   0.00000   0.00166   0.00166   2.05591
    R4        2.66264  -0.00924   0.00000  -0.02127  -0.02125   2.64139
    R5        2.90964  -0.02201   0.00000  -0.07588  -0.07588   2.83377
    R6        2.66503  -0.00343   0.00000  -0.00809  -0.00810   2.65693
    R7        2.59117  -0.00610   0.00000  -0.01191  -0.01191   2.57926
    R8        2.63488  -0.00071   0.00000  -0.00133  -0.00135   2.63353
    R9        2.84952  -0.00100   0.00000  -0.00312  -0.00312   2.84640
   R10        2.63929  -0.00102   0.00000  -0.00166  -0.00167   2.63761
   R11        2.05511   0.00054   0.00000   0.00151   0.00151   2.05663
   R12        2.05171   0.00074   0.00000   0.00207   0.00207   2.05377
   R13        2.07371   0.00024   0.00000   0.00068   0.00068   2.07440
   R14        2.07330   0.00040   0.00000   0.00117   0.00117   2.07448
   R15        2.06894   0.00016   0.00000   0.00046   0.00046   2.06939
   R16        1.83285  -0.00146   0.00000  -0.00271  -0.00271   1.83014
   R17        2.63686   0.00340   0.00000   0.00761   0.00762   2.64448
   R18        2.63565   0.00393   0.00000   0.00873   0.00874   2.64438
   R19        2.63655  -0.00053   0.00000  -0.00115  -0.00115   2.63540
   R20        2.07745  -0.00791   0.00000  -0.02312  -0.02312   2.05434
   R21        2.63595  -0.00034   0.00000  -0.00071  -0.00071   2.63524
   R22        2.07910  -0.00843   0.00000  -0.02471  -0.02471   2.05440
   R23        2.63475  -0.00055   0.00000  -0.00153  -0.00153   2.63322
   R24        2.07910  -0.00818   0.00000  -0.02397  -0.02397   2.05514
   R25        2.63627  -0.00115   0.00000  -0.00279  -0.00280   2.63347
   R26        2.07938  -0.00829   0.00000  -0.02430  -0.02430   2.05508
   R27        2.07900  -0.00813   0.00000  -0.02383  -0.02383   2.05517
    A1        2.12548  -0.00387   0.00000  -0.01666  -0.01663   2.10885
    A2        2.07558   0.00067   0.00000   0.00061   0.00060   2.07618
    A3        2.08212   0.00321   0.00000   0.01605   0.01604   2.09815
    A4        2.05084   0.00556   0.00000   0.02067   0.02072   2.07155
    A5        2.09124   0.00467   0.00000   0.01893   0.01891   2.11016
    A6        2.14111  -0.01023   0.00000  -0.03961  -0.03963   2.10148
    A7        2.12528  -0.00047   0.00000  -0.00329  -0.00328   2.12200
    A8        2.15314  -0.00774   0.00000  -0.02967  -0.02968   2.12346
    A9        2.00477   0.00821   0.00000   0.03296   0.03295   2.03772
   A10        2.06754  -0.00193   0.00000  -0.00771  -0.00774   2.05979
   A11        2.08898   0.00087   0.00000   0.00348   0.00350   2.09248
   A12        2.12667   0.00106   0.00000   0.00423   0.00425   2.13091
   A13        2.11332   0.00093   0.00000   0.00585   0.00581   2.11913
   A14        2.07470  -0.00059   0.00000  -0.00367  -0.00365   2.07106
   A15        2.09516  -0.00034   0.00000  -0.00219  -0.00217   2.09300
   A16        2.08392  -0.00021   0.00000   0.00114   0.00113   2.08505
   A17        2.09852  -0.00009   0.00000  -0.00177  -0.00177   2.09676
   A18        2.10074   0.00030   0.00000   0.00063   0.00064   2.10138
   A19        1.94820  -0.00010   0.00000  -0.00072  -0.00072   1.94748
   A20        1.94681   0.00009   0.00000   0.00072   0.00072   1.94753
   A21        1.93412  -0.00012   0.00000  -0.00080  -0.00080   1.93332
   A22        1.85673   0.00002   0.00000   0.00021   0.00021   1.85695
   A23        1.88782   0.00006   0.00000  -0.00001  -0.00001   1.88780
   A24        1.88693   0.00007   0.00000   0.00067   0.00067   1.88760
   A25        1.91047  -0.00386   0.00000  -0.02343  -0.02343   1.88705
   A26        2.09448   0.00196   0.00000   0.00718   0.00718   2.10166
   A27        2.09470   0.00197   0.00000   0.00720   0.00720   2.10190
   A28        2.09401  -0.00393   0.00000  -0.01439  -0.01438   2.07962
   A29        2.09427   0.00144   0.00000   0.00680   0.00678   2.10106
   A30        2.09410  -0.00152   0.00000  -0.00828  -0.00830   2.08580
   A31        2.09481   0.00009   0.00000   0.00150   0.00148   2.09629
   A32        2.09491   0.00134   0.00000   0.00645   0.00643   2.10133
   A33        2.09457  -0.00156   0.00000  -0.00864  -0.00865   2.08592
   A34        2.09371   0.00022   0.00000   0.00220   0.00218   2.09589
   A35        2.09431   0.00071   0.00000   0.00204   0.00202   2.09634
   A36        2.09371  -0.00053   0.00000  -0.00212  -0.00211   2.09160
   A37        2.09516  -0.00017   0.00000   0.00008   0.00009   2.09524
   A38        2.09388   0.00073   0.00000   0.00223   0.00222   2.09610
   A39        2.09461  -0.00061   0.00000  -0.00257  -0.00256   2.09205
   A40        2.09469  -0.00013   0.00000   0.00034   0.00034   2.09504
   A41        2.09499  -0.00029   0.00000  -0.00312  -0.00314   2.09185
   A42        2.09398   0.00018   0.00000   0.00175   0.00176   2.09574
   A43        2.09422   0.00012   0.00000   0.00137   0.00138   2.09560
    D1       -0.00006   0.00000   0.00000   0.00013   0.00013   0.00007
    D2        3.14150   0.00000   0.00000   0.00012   0.00011  -3.14157
    D3        3.14116   0.00001   0.00000   0.00033   0.00033   3.14149
    D4       -0.00047   0.00001   0.00000   0.00032   0.00031  -0.00015
    D5       -0.00001  -0.00000   0.00000  -0.00003  -0.00003  -0.00005
    D6       -3.14121  -0.00001   0.00000  -0.00037  -0.00037  -3.14158
    D7       -3.14123  -0.00001   0.00000  -0.00023  -0.00023  -3.14147
    D8        0.00076  -0.00001   0.00000  -0.00057  -0.00057   0.00018
    D9        0.00011  -0.00001   0.00000  -0.00020  -0.00020  -0.00010
   D10        3.14084   0.00003   0.00000   0.00096   0.00095  -3.14139
   D11       -3.14145  -0.00001   0.00000  -0.00019  -0.00019   3.14154
   D12       -0.00072   0.00003   0.00000   0.00098   0.00096   0.00025
   D13       -1.56929  -0.00001   0.00000  -0.00064  -0.00063  -1.56992
   D14        1.57038   0.00002   0.00000   0.00110   0.00110   1.57147
   D15        1.57227  -0.00001   0.00000  -0.00065  -0.00065   1.57162
   D16       -1.57125   0.00002   0.00000   0.00108   0.00108  -1.57017
   D17       -0.00008   0.00001   0.00000   0.00018   0.00018   0.00010
   D18        3.14051   0.00003   0.00000   0.00116   0.00117  -3.14151
   D19       -3.14088  -0.00002   0.00000  -0.00087  -0.00089   3.14141
   D20       -0.00029   0.00000   0.00000   0.00012   0.00010  -0.00020
   D21       -0.00114   0.00000   0.00000   0.00011   0.00011  -0.00103
   D22        3.13965   0.00003   0.00000   0.00119   0.00119   3.14084
   D23        0.00000  -0.00000   0.00000  -0.00007  -0.00008  -0.00008
   D24        3.14090   0.00001   0.00000   0.00062   0.00062   3.14152
   D25       -3.14057  -0.00002   0.00000  -0.00108  -0.00109   3.14153
   D26        0.00033  -0.00001   0.00000  -0.00039  -0.00039  -0.00005
   D27       -1.03698  -0.00004   0.00000  -0.00089  -0.00089  -1.03787
   D28        1.03755  -0.00002   0.00000  -0.00062  -0.00062   1.03693
   D29        3.14085   0.00004   0.00000   0.00017   0.00016   3.14101
   D30        2.10358  -0.00002   0.00000   0.00013   0.00013   2.10371
   D31       -2.10508  -0.00000   0.00000   0.00040   0.00040  -2.10468
   D32       -0.00178   0.00006   0.00000   0.00118   0.00118  -0.00060
   D33        0.00005   0.00000   0.00000   0.00000   0.00001   0.00005
   D34        3.14124   0.00001   0.00000   0.00034   0.00035   3.14159
   D35       -3.14085  -0.00002   0.00000  -0.00070  -0.00070  -3.14155
   D36        0.00035  -0.00001   0.00000  -0.00036  -0.00036  -0.00001
   D37        3.14150  -0.00034   0.00000  -0.01270  -0.01269   3.12881
   D38       -0.00217  -0.00003   0.00000  -0.00107  -0.00107  -0.00325
   D39        0.00183  -0.00037   0.00000  -0.01446  -0.01442  -0.01259
   D40        3.14134  -0.00007   0.00000  -0.00282  -0.00280   3.13854
   D41       -3.14072   0.00031   0.00000   0.01182   0.01181  -3.12891
   D42        0.00108   0.00006   0.00000   0.00199   0.00200   0.00308
   D43       -0.00105   0.00035   0.00000   0.01357   0.01354   0.01249
   D44        3.14075   0.00010   0.00000   0.00375   0.00373  -3.13871
   D45       -0.00157   0.00019   0.00000   0.00755   0.00761   0.00604
   D46        3.14075   0.00020   0.00000   0.00772   0.00776  -3.13467
   D47       -3.14108  -0.00011   0.00000  -0.00408  -0.00407   3.13804
   D48        0.00124  -0.00010   0.00000  -0.00391  -0.00391  -0.00267
   D49        0.00000  -0.00015   0.00000  -0.00579  -0.00584  -0.00584
   D50       -3.14084  -0.00019   0.00000  -0.00737  -0.00741   3.13493
   D51        3.14139   0.00011   0.00000   0.00403   0.00402  -3.13778
   D52        0.00054   0.00006   0.00000   0.00245   0.00245   0.00299
   D53        0.00053   0.00000   0.00000   0.00022   0.00024   0.00077
   D54        3.14084  -0.00000   0.00000  -0.00004  -0.00005   3.14079
   D55        3.14139  -0.00000   0.00000   0.00005   0.00009   3.14148
   D56       -0.00148  -0.00001   0.00000  -0.00021  -0.00020  -0.00168
   D57        0.00026  -0.00003   0.00000  -0.00111  -0.00113  -0.00087
   D58       -3.14006  -0.00002   0.00000  -0.00085  -0.00084  -3.14089
   D59        3.14111   0.00001   0.00000   0.00048   0.00045   3.14155
   D60        0.00079   0.00002   0.00000   0.00074   0.00074   0.00152
         Item               Value     Threshold  Converged?
 Maximum Force            0.022006     0.000450     NO 
 RMS     Force            0.003253     0.000300     NO 
 Maximum Displacement     0.204004     0.001800     NO 
 RMS     Displacement     0.044448     0.001200     NO 
 Predicted change in Energy=-2.329342D-03
 GradGradGradGradGradGradGradGradGradGradGradGradGradGradGradGradGradGrad

                          Input orientation:                          
 ---------------------------------------------------------------------
 Center     Atomic      Atomic             Coordinates (Angstroms)
 Number     Number       Type             X           Y           Z
 ---------------------------------------------------------------------
      1          6           0       -0.716191    1.639370   -0.005588
      2          6           0       -0.445024    0.267175    0.000405
      3          6           0       -1.517814   -0.628845    0.003300
      4          6           0       -2.850763   -0.181590    0.000446
      5          6           0       -3.080023    1.193015   -0.005531
      6          6           0       -2.024806    2.106617   -0.008539
      7          1           0        0.115571    2.340644   -0.007761
      8          1           0       -4.107844    1.550815   -0.007854
      9          1           0       -2.222595    3.175267   -0.013205
     10          6           0       -3.977815   -1.180859    0.003836
     11          1           0       -3.935252   -1.840479   -0.872569
     12          1           0       -3.936024   -1.833745    0.885359
     13          1           0       -4.947671   -0.672369    0.001586
     14          8           0       -1.323046   -1.979746    0.009371
     15          1           0       -0.369046   -2.146515    0.010047
     16          6           0        0.966554   -0.238920    0.003624
     17          6           0        1.634748   -0.482126   -1.201648
     18          6           0        1.632520   -0.473801    1.211719
     19          6           0        2.952623   -0.938290   -1.197910
     20          1           0        1.121876   -0.304344   -2.143539
     21          6           0        2.950275   -0.930054    1.213921
     22          1           0        1.118067   -0.289417    2.151514
     23          6           0        3.611474   -1.162141    0.009352
     24          1           0        3.465635   -1.118267   -2.139799
     25          1           0        3.461620   -1.103809    2.157848
     26          1           0        4.638949   -1.518585    0.011614
 ---------------------------------------------------------------------
                    Distance matrix (angstroms):
                    1          2          3          4          5
     1  C    0.000000
     2  C    1.398745   0.000000
     3  C    2.405717   1.397761   0.000000
     4  C    2.805767   2.447237   1.405987   0.000000
     5  C    2.405605   2.792926   2.399948   1.393605   0.000000
     6  C    1.389533   2.424735   2.782073   2.432730   1.395765
     7  H    1.087942   2.147931   3.389090   3.893696   3.395421
     8  H    3.392809   3.881243   3.385158   2.140455   1.088320
     9  H    2.151346   3.408364   3.868883   3.415153   2.159761
    10  C    4.311840   3.818039   2.521175   1.506252   2.537990
    11  H    4.819063   4.169650   2.842396   2.165684   3.268832
    12  H    4.819091   4.169423   2.842104   2.165751   3.269205
    13  H    4.821786   4.599628   3.430134   2.153576   2.639663
    14  O    3.669673   2.412396   1.364883   2.359526   3.626790
    15  H    3.801800   2.414904   1.903427   3.165429   4.301407
    16  C    2.521843   1.499565   2.514781   3.817749   4.292471
    17  C    3.385000   2.516314   3.378176   4.653510   5.144498
    18  C    3.385819   2.516449   3.377709   4.653213   5.144709
    19  C    4.639630   3.799094   4.639339   5.973939   6.508230
    20  H    3.424522   2.716304   3.417920   4.515927   4.946627
    21  C    4.640272   3.799215   4.638982   5.973673   6.508378
    22  H    3.426049   2.716674   3.417295   4.515565   4.947162
    23  C    5.155326   4.300954   5.156941   6.536212   7.093879
    24  H    5.444914   4.668316   5.446757   6.734604   7.262421
    25  H    5.446062   4.668621   5.446322   6.734318   7.262830
    26  H    6.216953   5.388492   6.220726   7.608118   8.181418
                    6          7          8          9         10
     6  C    0.000000
     7  H    2.153134   0.000000
     8  H    2.155913   4.296634   0.000000
     9  H    1.086810   2.482669   2.488582   0.000000
    10  C    3.823858   5.399715   2.734792   4.696480   0.000000
    11  H    4.469443   5.885479   3.504054   5.369303   1.097723
    12  H    4.469705   5.885458   3.504654   5.369680   1.097766
    13  H    4.033114   5.891924   2.376541   4.714930   1.095075
    14  O    4.146221   4.553645   4.496694   5.232959   2.772372
    15  H    4.564101   4.513288   5.258248   5.635384   3.735738
    16  C    3.801306   2.716331   5.380780   4.672005   5.033292
    17  C    4.638689   3.420716   6.207685   5.446836   5.782930
    18  C    4.639356   3.421895   6.207914   5.447756   5.782280
    19  C    5.954903   4.496302   7.580374   6.716231   7.038040
    20  H    4.502506   3.545442   5.945816   5.275557   5.602351
    21  C    5.955436   4.497280   7.580534   6.717000   7.037445
    22  H    4.503828   3.547491   5.946383   5.277316   5.601357
    23  C    6.515578   4.948852   8.182194   7.269800   7.589314
    24  H    6.714692   5.266173   8.308235   7.437257   7.746226
    25  H    6.715723   5.267842   8.308674   7.438700   7.745379
    26  H    7.586049   5.946005   9.269735   8.313462   8.623383
                   11         12         13         14         15
    11  H    0.000000
    12  H    1.757941   0.000000
    13  H    1.775843   1.775748   0.000000
    14  O    2.760586   2.759769   3.853207   0.000000
    15  H    3.686529   3.686099   4.810092   0.968467   0.000000
    16  C    5.230718   5.230315   5.930088   2.876243   2.328688
    17  C    5.742675   6.100489   6.694192   3.529586   2.872905
    18  C    6.100177   5.741484   6.693487   3.528297   2.871977
    19  C    6.954324   7.252262   7.995259   4.563278   3.735298
    20  H    5.435956   6.090618   6.447977   3.663281   3.202245
    21  C    7.252090   6.953109   7.994606   4.562244   3.734566
    22  H    6.089902   5.434329   6.446862   3.661286   3.200968
    23  C    7.628303   7.627789   8.573151   5.001796   4.100431
    24  H    7.543248   8.027953   8.692990   5.319073   4.514854
    25  H    8.027442   7.541695   8.692053   5.317541   4.513788
    26  H    8.625678   8.625133   9.623901   5.979804   5.047208
                   16         17         18         19         20
    16  C    0.000000
    17  C    1.399397   0.000000
    18  C    1.399348   2.413383   0.000000
    19  C    2.424309   1.394595   2.786528   0.000000
    20  H    2.153767   1.087107   3.398122   2.155861   0.000000
    21  C    2.424384   2.786795   1.394508   2.411846   3.873900
    22  H    2.153819   3.398204   1.087139   3.873664   4.295080
    23  C    2.801423   2.415862   2.415732   1.393440   3.401302
    24  H    3.407773   2.153358   3.874058   1.087533   2.481067
    25  H    3.407942   3.874295   2.153526   3.398174   4.961399
    26  H    3.888970   3.401688   3.401536   2.154852   4.299869
                   21         22         23         24         25
    21  C    0.000000
    22  H    2.155570   0.000000
    23  C    1.393570   3.401115   0.000000
    24  H    3.398302   4.961192   2.154540   0.000000
    25  H    1.087502   2.481030   2.154506   4.297673   0.000000
    26  H    2.154885   4.299608   1.087548   2.483043   2.482834
                   26
    26  H    0.000000
 Stoichiometry    C13H12O
 Framework group  C1[X(C13H12O)]
 Deg. of freedom    72
 Full point group                 C1      NOp   1
 Largest Abelian subgroup         C1      NOp   1
 Largest concise Abelian subgroup C1      NOp   1
                         Standard orientation:                         
 ---------------------------------------------------------------------
 Center     Atomic      Atomic             Coordinates (Angstroms)
 Number     Number       Type             X           Y           Z
 ---------------------------------------------------------------------
      1          6           0       -0.818175    1.787029    0.001060
      2          6           0       -0.314722    0.482030    0.000304
      3          6           0       -1.217157   -0.585372   -0.000412
      4          6           0       -2.607221   -0.374369   -0.000273
      5          6           0       -3.069808    0.940221    0.000483
      6          6           0       -2.187711    2.021917    0.001181
      7          1           0       -0.119623    2.621082    0.001718
      8          1           0       -4.143895    1.115657    0.000530
      9          1           0       -2.566601    3.040542    0.001764
     10          6           0       -3.545324   -1.552824   -0.000955
     11          1           0       -3.391067   -2.191209   -0.880538
     12          1           0       -3.390432   -2.192814    0.877402
     13          1           0       -4.588266   -1.218969   -0.000150
     14          8           0       -0.792629   -1.882554   -0.000939
     15          1           0        0.175837   -1.882523   -0.001670
     16          6           0        1.162930    0.226607    0.000198
     17          6           0        1.861274    0.107680   -1.206651
     18          6           0        1.861151    0.104369    1.206730
     19          6           0        3.238024   -0.114699   -1.205938
     20          1           0        1.324078    0.198813   -2.147352
     21          6           0        3.237797   -0.118112    1.205906
     22          1           0        1.323996    0.193057    2.147724
     23          6           0        3.927337   -0.227295   -0.000183
     24          1           0        3.772998   -0.199285   -2.149005
     25          1           0        3.772796   -0.205551    2.148663
     26          1           0        5.000850   -0.401454   -0.000283
 ---------------------------------------------------------------------
 Rotational constants (GHZ):           1.5963972           0.4240321           0.3804424
 Standard basis: 6-31G(2d) (6D, 7F)
 There are   318 symmetry adapted cartesian basis functions of A   symmetry.
 There are   318 symmetry adapted basis functions of A   symmetry.
   318 basis functions,   524 primitive gaussians,   318 cartesian basis functions
    49 alpha electrons       49 beta electrons
       nuclear repulsion energy       812.4348447608 Hartrees.
 NAtoms=   26 NActive=   26 NUniq=   26 SFac= 1.00D+00 NAtFMM=   60 NAOKFM=F Big=F
 Integral buffers will be    131072 words long.
 Raffenetti 2 integral format.
 Two-electron integral symmetry is turned on.
 ------------------------------------------------------------------------------
 Polarizable Continuum Model (PCM)
 =================================
 Model                : PCM.
 Atomic radii         : SMD-Coulomb.
 Polarization charges : Total charges.
 Charge compensation  : None.
 Solution method      : On-the-fly selection.
 Cavity type          : VdW (van der Waals Surface) (Alpha=1.000).
 Cavity algorithm     : GePol (No added spheres)
                        Default sphere list used, NSphG=   26.
                        Lebedev-Laikov grids with approx.  5.0 points / Ang**2.
                        Smoothing algorithm: York/Karplus (Gamma=1.0000).
                        Polarization charges: spherical gaussians, with
                                              point-specific exponents (IZeta= 3).
                        Self-potential: point-specific (ISelfS= 7).
                        Self-field    : sphere-specific E.n sum rule (ISelfD= 2).
 1st derivatives      : Analytical E(r).r(x)/FMM algorithm (CHGder, D1EAlg=3).
                        Cavity 1st derivative terms included.
 Solvent              : Toluene, Eps=   2.374100 Eps(inf)=   2.238315
 ------------------------------------------------------------------------------
 ------------------------------------------------------------------------------
 Atomic radii for non-electrostatic terms: SMD-CDS.
 ------------------------------------------------------------------------------
 Nuclear repulsion after PCM non-electrostatic terms =      812.4247977069 Hartrees.
 One-electron integrals computed using PRISM.
 NBasis=   318 RedAO= T EigKep=  1.20D-04  NBF=   318
 NBsUse=   318 1.00D-06 EigRej= -1.00D+00 NBFU=   318
 Initial guess from the checkpoint file:  "A10PDB.chk"
 B after Tr=    -0.000000    0.000000    0.000000
         Rot=    0.999990   -0.000408    0.000005   -0.004510 Ang=  -0.52 deg.
 ExpMin= 1.61D-01 ExpMax= 5.48D+03 ExpMxC= 8.25D+02 IAcc=3 IRadAn=         5 AccDes= 0.00D+00
 Harris functional with IExCor=  402 and IRadAn=       5 diagonalized for initial guess.
 HarFok:  IExCor=  402 AccDes= 0.00D+00 IRadAn=         5 IDoV= 1 UseB2=F ITyADJ=14
 ICtDFT=  3500011 ScaDFX=  1.000000  1.000000  1.000000  1.000000
 FoFCou: FMM=F IPFlag=           0 FMFlag=      100000 FMFlg1=           0
         NFxFlg=           0 DoJE=T BraDBF=F KetDBF=T FulRan=T
         wScrn=  0.000000 ICntrl=       500 IOpCl=  0 I1Cent=   200000004 NGrid=           0
         NMat0=    1 NMatS0=      1 NMatT0=    0 NMatD0=    1 NMtDS0=    0 NMtDT0=    0
 Petite list used in FoFCou.
 Requested convergence on RMS density matrix=1.00D-08 within 128 cycles.
 Requested convergence on MAX density matrix=1.00D-06.
 Requested convergence on             energy=1.00D-06.
 No special actions if energy rises.
 Inv3:  Mode=1 IEnd=    12706092.
 Iteration    1 A*A^-1 deviation from unit magnitude is 5.22D-15 for   2017.
 Iteration    1 A*A^-1 deviation from orthogonality  is 1.52D-15 for   2046   1964.
 Iteration    1 A^-1*A deviation from unit magnitude is 5.00D-15 for   2017.
 Iteration    1 A^-1*A deviation from orthogonality  is 2.43D-15 for   1390    831.
 Error on total polarization charges =  0.02469
 SCF Done:  E(RB3LYP) =  -577.860409839     A.U. after   10 cycles
            NFock= 10  Conv=0.83D-08     -V/T= 2.0078
 SMD-CDS (non-electrostatic) energy       (kcal/mol) =      -6.30
 (included in total energy above)
 D1PCM: PCM CHGder 1st derivatives, ID1Alg=3 FixD1E=F DoIter=F DoCFld=F I1PDM=0.
 Calling FoFJK, ICntrl=      2127 FMM=F ISym2X=0 I1Cent= 0 IOpClX= 0 NMat=1 NMatS=1 NMatT=0.
 ***** Axes restored to original set *****
 -------------------------------------------------------------------
 Center     Atomic                   Forces (Hartrees/Bohr)
 Number     Number              X              Y              Z
 -------------------------------------------------------------------
      1        6           0.000007626    0.001121598    0.000001359
      2        6           0.004293535    0.003469675   -0.000004775
      3        6          -0.002918084   -0.003537512    0.000043599
      4        6          -0.000060360   -0.000670930    0.000000785
      5        6           0.000952296    0.000386654    0.000000212
      6        6          -0.000782758   -0.000528326   -0.000006447
      7        1           0.000088270   -0.000374219   -0.000003395
      8        1          -0.000070610    0.000067722    0.000001997
      9        1          -0.000276586    0.000053990    0.000001440
     10        6           0.000143248    0.000366155    0.000029845
     11        1          -0.000031177   -0.000047438   -0.000102228
     12        1          -0.000017683   -0.000030642    0.000079653
     13        1          -0.000109224   -0.000175162   -0.000011855
     14        8          -0.000422596    0.001032003   -0.000026672
     15        1           0.000325741   -0.000495947    0.000012112
     16        6          -0.006289066    0.001224685   -0.000069219
     17        6           0.003322268   -0.001080483   -0.000512509
     18        6           0.003274938   -0.001063297    0.000683743
[...]
 001625,-0.00001402,0.00001383,-0.00000228,-0.00197607,0.00062370,-0.00
 007188,0.00123418,0.00101422,0.00023570,-0.03997329,-0.01544640,0.0591
 5264,-0.31685956,0.09461878,-0.02399675,-0.03852387,0.02064985,-0.0235
 7650,0.65591160,-0.00063053,-0.00024829,0.00058073,-0.00094821,0.00503
 085,0.00374999,0.00064140,0.00140609,-0.00058503,0.00012590,0.00016119
 ,-0.00024522,-0.00011648,0.00014871,-0.00003760,-0.00019438,-0.0001106
 1,-0.00039846,0.00007531,0.00010227,0.00028080,0.00000489,0.00000149,0
 .00003955,-0.00004683,0.00002026,-0.00002654,0.00004392,-0.00002064,0.
 00004395,-0.00000375,-0.00000331,-0.00000385,-0.00001698,-0.00001264,0
 .00001127,0.00001749,0.00000982,0.00001307,0.00135383,-0.00093465,0.00
 012916,-0.00091542,-0.00065312,0.00022060,0.00548323,0.02108799,-0.031
 04009,0.06594363,-0.09974985,0.03618469,0.02175349,-0.02083710,0.01171
 481,-0.11871378,0.27933751,-0.00067563,0.00021542,0.00016288,0.0030527
 7,0.00436313,-0.00226027,0.00136954,-0.00148918,-0.00000454,0.00005261
 ,0.00064501,-0.00010235,-0.00020146,-0.00022231,0.00007544,0.00042404,
 0.00003360,0.00005720,-0.00011467,-0.00001846,-0.00025935,0.00000240,-
 0.00000449,-0.00000221,-0.00000075,0.00000351,0.00000230,0.00010313,-0
 .00008136,-0.00000768,-0.00000012,0.00000295,0.00000468,0.00000052,-0.
 00000540,0.00000042,0.00002932,0.00003033,-0.00001695,-0.00089946,0.00
 009908,0.00029400,0.00040551,0.00038959,-0.00034736,0.01910076,-0.0196
 0043,0.03167129,0.03133925,0.01871728,-0.11768073,-0.02434964,0.012525
 35,-0.01631815,-0.09549344,-0.21109009,0.60736718,0.00011461,0.0002907
 6,0.00008193,0.00107307,-0.00152468,0.00011495,-0.00023197,-0.00031821
 ,0.00015364,0.00008446,-0.00015635,0.00009246,0.00012103,0.00018422,-0
 .00004962,-0.00035889,-0.00000575,-0.00007554,-0.00016510,0.00012340,0
 .00027237,0.00001259,0.00000430,0.00000685,0.00002519,-0.00000942,0.00
 004112,-0.00001788,-0.00000450,-0.00002469,0.00000324,0.00000390,0.000
 00177,0.00001564,0.00001289,-0.00001060,0.00000864,-0.00000201,-0.0000
 0320,-0.00003049,0.00025966,-0.00009775,0.00005511,0.00000144,0.000051
 31,0.00906620,-0.00977280,0.01593261,-0.08838163,0.05107828,-0.0722148
 8,-0.00211775,0.00079535,0.00374052,-0.00551810,0.01522823,-0.02544104
 ,0.09072956,0.00065656,0.00017863,-0.00055249,0.00030023,-0.00280223,-
 0.00183114,-0.00091429,0.00006990,0.00010494,0.00015137,-0.00035786,0.
 00016030,0.00012772,0.00024857,-0.00006452,-0.00033254,-0.00007662,0.0
 0006688,0.00028873,-0.00026167,-0.00023846,-0.00001243,0.00000242,0.00
 001628,0.00001816,-0.00001359,-0.00002649,-0.00003279,0.00002260,0.000
 00727,-0.00000581,-0.00001011,-0.00000045,-0.00000423,0.00000293,-0.00
 000378,-0.00001523,-0.00001131,0.00000049,-0.00006536,0.00008356,-0.00
 016001,0.00009633,0.00005046,0.00007005,0.00247372,0.00006607,0.004632
 40,0.05040408,-0.10945374,0.11720976,0.00013094,0.00446360,0.00240325,
 0.00207833,-0.00222146,0.00767261,-0.05758430,0.10766257,0.00054782,0.
 00028054,0.00002563,-0.00170726,-0.00116577,0.00016955,0.00013756,0.00
 040640,0.00005349,-0.00012408,0.00008766,-0.00001164,-0.00009899,-0.00
 016664,-0.00000123,0.00017920,-0.00028103,0.00025336,-0.00009148,-0.00
 056822,-0.00024974,-0.00003504,-0.00002592,-0.00001564,0.00003342,0.00
 000508,0.00000094,0.00001625,-0.00002808,-0.00001229,-0.00002548,-0.00
 001280,-0.00000302,-0.00002136,-0.00001075,0.00001269,-0.00000507,-0.0
 0000355,-0.00000048,0.00012617,-0.00025328,0.00010599,-0.00020034,-0.0
 0010350,-0.00010712,-0.00960733,0.01225455,-0.01514379,-0.07119089,0.1
 1726744,-0.22954776,0.00464353,0.00198998,-0.00102164,0.00172519,-0.00
 086390,0.00334872,0.07551446,-0.12923604,0.24027768,-0.00128292,0.0011
 1161,-0.00046973,0.00481506,0.00060736,0.00068732,-0.00108561,0.002056
 53,0.00046872,0.00027729,-0.00037645,0.00044991,-0.00010866,0.00010590
 ,-0.00010812,0.00017953,-0.00019401,-0.00034996,-0.00001870,-0.0003560
 9,0.00038129,-0.00000820,-0.00003991,0.00001818,-0.00003443,0.00002591
 ,0.00003368,-0.00002801,-0.00006297,0.00000188,-0.00003875,-0.00000382
 ,-0.00001629,-0.00002328,0.00001130,0.00001300,0.00002247,-0.00001667,
 0.00000201,0.00300296,-0.00104921,-0.00013197,-0.00299365,-0.00094152,
 -0.00028325,-0.00826439,0.03959425,-0.06883901,-0.05601800,0.00267912,
 0.02457887,-0.31103432,0.06687871,0.03057435,0.05873842,-0.03172676,0.
 03148082,-0.00106540,-0.00026951,0.00056978,0.63468253,-0.00069982,0.0
 0020630,0.00012402,0.00181332,0.00437433,0.00444472,0.00127888,-0.0024
 8824,0.00040113,-0.00036618,0.00039672,-0.00040378,0.00004305,-0.00039
 494,0.00011597,0.00037869,0.00029769,-0.00041908,0.00001040,0.00006240
 ,0.00013329,-0.00000271,0.00002122,0.00003568,-0.00004234,-0.00000263,
 -0.00003429,0.00004458,-0.00001348,0.00001454,0.00003017,0.00001225,0.
 00001202,0.00001914,-0.00000517,-0.00001467,0.00000332,0.00002254,0.00
 000697,-0.00174808,0.00076791,-0.00068719,0.00101247,0.00056901,0.0007
 4236,0.01907636,-0.00537542,0.01202091,0.00233752,-0.00704298,-0.00482
 849,0.09307691,-0.09811666,0.01839173,-0.01108215,0.00267984,0.0178916
 0,-0.00006696,0.00010720,-0.00035480,-0.13635162,0.28899702,-0.0012751
 5,-0.00010330,-0.00015263,0.00039081,0.00478778,-0.00289640,0.00085420
 ,-0.00026360,0.00010727,-0.00023480,0.00013415,-0.00022558,0.00006753,
 -0.00018909,0.00003635,0.00027587,0.00057844,0.00032967,0.00001216,0.0
 0006241,-0.00027997,-0.00000721,-0.00001155,-0.00003084,-0.00011387,0.
 00004062,0.00001362,0.00000605,0.00000268,0.00000363,0.00001075,0.0000
 0789,0.00000846,-0.00000621,-0.00001449,-0.00000182,0.00000400,0.00000
 443,0.00000514,-0.00085827,-0.00032258,0.00035526,0.00071494,0.0002663
 6,-0.00023282,-0.02940784,-0.00002760,0.02656334,0.02511815,-0.0049248
 8,-0.01393048,-0.02482774,0.03462334,-0.11702019,-0.00975492,0.0306475
 0,-0.04645412,0.00065876,-0.00023637,0.00010933,-0.04782692,-0.2265470
 4,0.61589666,0.00025226,0.00000712,0.00007910,0.00029328,-0.00108149,-
 0.00081690,-0.00041925,0.00047843,-0.00047784,0.00001626,0.00005601,0.
 00019882,-0.00001179,-0.00001953,0.00000299,0.00003854,-0.00009634,0.0
 0006332,-0.00001337,-0.00002375,-0.00003913,0.00001050,-0.00001180,-0.
 00002209,0.00002189,-0.00001708,0.00000384,-0.00001389,-0.00001799,-0.
 00003206,-0.00000063,0.00001004,0.00000730,0.00000402,0.00000564,-0.00
 000014,0.00001755,-0.00000121,0.00000109,-0.00034599,-0.00087233,-0.00
 070399,-0.00069991,-0.00038092,-0.00049791,0.00975527,0.00205169,-0.00
 933170,0.00020799,0.00266039,-0.00153203,-0.15189652,-0.02023686,0.129
 53551,-0.00053300,0.00050453,-0.00087182,0.00063432,0.00031618,-0.0004
 6364,-0.01364934,-0.00667004,0.02502646,0.16040197,0.00060890,-0.00041
 882,0.00010798,-0.00246641,-0.00240965,-0.00180821,-0.00065505,0.00158
 966,-0.00045532,0.00033100,-0.00029152,0.00025729,0.00005057,0.0002413
 4,-0.00007575,-0.00030379,-0.00017977,0.00016552,0.00001550,0.00000190
 ,-0.00001328,0.00000187,-0.00000688,-0.00002466,0.00002972,-0.00000818
 ,-0.00000781,-0.00001884,0.00000310,-0.00000309,-0.00002314,-0.0000084
 7,-0.00001182,-0.00001274,0.00001328,0.00001604,-0.00000296,-0.0000153
 4,0.00000214,0.00096490,-0.00065931,0.00016501,-0.00144053,-0.00013551
 ,-0.00112712,-0.00977668,-0.00009765,0.01261533,0.00331005,0.00285212,
 0.00439896,-0.01928368,-0.04843665,0.04307234,0.00058640,-0.00053054,0
 .00008944,-0.00053790,0.00026023,0.00088477,0.00563221,0.00431805,-0.0
 0875925,0.02091081,0.04192919,-0.00000187,0.00019040,0.00014816,0.0001
 0060,-0.00217555,0.00012489,-0.00110335,0.00258278,-0.00074808,0.00006
 318,-0.00037565,0.00007896,-0.00000372,0.00007337,-0.00000859,0.000036
 21,-0.00015221,0.00003662,0.00000454,-0.00007643,-0.00001953,0.0000139
 8,-0.00002632,0.00001220,0.00000263,-0.00001389,-0.00001466,-0.0000579
 3,-0.00000059,-0.00001449,-0.00002331,0.00000407,-0.00001431,-0.000008
 50,0.00001554,0.00001188,0.00001516,-0.00002263,-0.00000202,0.00115139
 ,-0.00132817,0.00180549,-0.00089240,-0.00107399,-0.00222340,0.01610394
 ,0.00262374,-0.01479467,-0.00250744,0.00438708,-0.00134020,0.12967151,
 0.04451959,-0.22381073,-0.00086981,0.00007173,-0.00010059,0.00100866,0
 .00041750,-0.00072811,-0.00267550,-0.00024528,0.00430171,-0.13949038,-
 0.04948980,0.23467384,0.00001515,-0.00074512,0.00072301,-0.00132123,0.
 00056167,0.00001494,0.00036200,0.00041965,-0.00060906,0.00008059,0.000
 02743,-0.00002428,-0.00004074,0.00019949,-0.00003535,-0.00036021,-0.00
 001720,-0.00009738,0.00000969,0.00003002,-0.00003274,-0.00002582,0.000
 02186,0.00002891,-0.00005481,0.00002921,-0.00005027,0.00001116,0.00006
 165,-0.00001224,-0.00001507,-0.00002518,-0.00000038,-0.00001454,-0.000
 02330,0.00001276,-0.00003928,-0.00000944,-0.00000080,-0.00045809,-0.00
 039653,0.00017179,0.00015233,0.00058676,-0.00009914,0.00030916,-0.0076
 9809,0.00917532,-0.00764691,0.01962732,-0.03038549,-0.03985549,0.00541
 904,0.02124230,-0.14890717,0.06656708,-0.07467972,-0.00447799,0.003339
 28,0.00108328,-0.20519242,-0.02264273,0.13537764,-0.00386603,0.0034648
 0,-0.00005337,0.69419939,0.00027623,0.00008959,-0.00033442,-0.00005855
 ,-0.00108532,-0.00032872,0.00009954,-0.00088563,0.00024578,-0.00016169
 ,0.00008332,-0.00011279,0.00000474,-0.00019508,0.00005012,0.00026276,0
 .00009206,0.00019690,-0.00004456,0.00010945,-0.00017018,0.00001210,-0.
 00000135,-0.00002738,0.00003173,-0.00001199,0.00003033,-0.00000875,0.0
 0000114,0.00000674,0.00001956,0.00001352,0.00000591,0.00001643,0.00000
 728,-0.00001092,0.00000421,0.00000842,-0.00000230,-0.00092809,0.000530
 38,0.00002564,0.00074377,0.00024311,0.00001303,-0.00717673,-0.01594890
 ,0.02191299,0.04066847,-0.00506814,0.00040382,-0.01595114,0.02082329,-
 0.01822330,0.03880234,-0.13499586,0.11871026,0.00273182,0.00565292,0.0
 0210414,0.00477968,-0.08670993,0.04830391,0.00436299,0.00517753,0.0023
 0477,-0.14782504,0.28175311,-0.00029422,0.00044969,0.00036395,0.000061
 47,-0.00015430,-0.00042005,-0.00059918,0.00206230,-0.00017322,0.000206
 22,-0.00024670,0.00041828,-0.00001773,0.00019287,-0.00013461,-0.000216
 41,-0.00030394,-0.00023798,0.00000945,-0.00033202,0.00031325,-0.000011
 14,-0.00002522,0.00002557,-0.00000731,0.00000939,-0.00000386,-0.000015
 69,-0.00002823,-0.00000137,-0.00003447,-0.00000734,-0.00001237,-0.0000
 2116,0.00000078,0.00001643,0.00001142,-0.00001718,0.00000349,0.0024881
 4,-0.00078684,0.00003805,-0.00166409,-0.00112026,-0.00024752,0.0091760
 5,0.02229396,-0.05676788,-0.07126281,0.01257573,0.02644955,0.06160474,
 -0.03059601,0.03078407,-0.01884664,0.10081334,-0.24518899,0.00218868,0
 .00150962,0.00254723,0.07945625,0.06506605,-0.24075927,-0.00106916,0.0
 0263681,0.00247884,-0.06471624,-0.20110531,0.56429065,-0.00004792,-0.0
 0016377,-0.00002900,-0.00026442,-0.00067354,0.00116194,-0.00031204,0.0
 0053512,-0.00003470,0.00002061,-0.00015066,-0.00006690,-0.00004375,0.0
 0007692,-0.00000772,-0.00007816,0.00001657,-0.00003020,0.00004115,0.00
 001376,0.00002405,-0.00001334,0.00000864,0.00000588,-0.00002659,0.0000
 2318,-0.00000264,-0.00001540,0.00004102,-0.00000238,-0.00000530,-0.000
 01325,-0.00000060,-0.00000783,-0.00000958,0.00000393,-0.00002430,-0.00
 000845,0.00000506,0.00003240,-0.00020703,0.00004069,0.00000671,0.00008
 622,0.00000484,-0.00367373,0.00415605,-0.00110541,-0.01379031,-0.00718
 995,0.02469690,-0.00055692,0.00053648,-0.00084956,-0.15828052,-0.02717
 306,0.13014042,0.00067878,-0.00098968,-0.00086302,0.00034392,0.0028219
 7,-0.00119952,0.00001292,-0.00043772,-0.00000673,0.01047649,0.00247448
 ,-0.00985950,0.16438717,-0.00003986,-0.00000192,-0.00004680,0.00024817
 ,0.00022581,-0.00031419,0.00008456,-0.00001741,-0.00002744,0.00000909,
 0.00003817,0.00000426,-0.00001772,-0.00002584,0.00001426,0.00005313,0.
 00000155,0.00002341,0.00004091,-0.00002489,-0.00003399,0.00000085,-0.0
 0000074,-0.00000261,0.00000685,-0.00000244,0.00000064,0.00001234,-0.00
 001116,0.00000065,-0.00000222,-0.00000219,-0.00000048,-0.00000100,0.00
 000093,-0.00000061,0.00000605,0.00000080,-0.00000244,0.00004274,-0.000
 06625,-0.00000531,-0.00002212,-0.00001626,0.00002188,0.00350734,0.0051
 8111,0.00285187,0.00643606,0.00476748,-0.00887763,0.00054308,-0.000524
 12,0.00002699,-0.02734279,-0.05316229,0.04983691,-0.00129001,-0.002632
 48,-0.00171616,0.00364777,0.00364540,0.00448251,-0.00043690,-0.0009255
 0,-0.00050420,-0.01124779,-0.00012985,0.01219679,0.02731814,0.04605393
 ,0.00002613,0.00002100,-0.00008247,-0.00004967,0.00001033,0.00011137,-
 0.00000930,-0.00002542,-0.00000348,-0.00001036,-0.00000017,-0.00002099
 ,-0.00000018,-0.00002967,0.00001419,0.00005873,0.00000246,0.00001791,0
 .00002258,0.00000959,-0.00001174,0.00000676,-0.00000273,-0.00000436,0.
 00001033,-0.00000829,0.00000447,-0.00000050,-0.00000821,0.00000355,0.0
 0000221,0.00000407,-0.00000003,0.00000048,0.00000320,-0.00000176,0.000
 00874,-0.00000006,0.00000009,0.00004407,-0.00000799,0.00000983,-0.0000
 5599,-0.00004669,-0.00000540,-0.00006867,0.00266224,0.00260239,-0.0025
 7811,-0.00005426,0.00414015,-0.00083012,0.00011967,0.00001800,0.130198
 66,0.05009328,-0.21715511,-0.00028062,-0.00194489,0.00007644,-0.002381
 35,0.00489002,-0.00103439,-0.00000791,-0.00057159,-0.00021787,0.017002
 00,0.00309273,-0.01440787,-0.14124274,-0.05679448,0.22664359,-0.000367
 98,-0.00011335,-0.00003533,0.00018242,0.00069974,-0.00117239,-0.000023
 46,0.00038477,-0.00003943,0.00006980,-0.00006777,0.00003693,-0.0000224
 0,0.00008709,-0.00002736,-0.00007927,0.00010325,0.00007626,0.00000940,
 -0.00000172,-0.00003691,-0.00001331,0.00000067,-0.00000650,-0.00004356
 ,0.00002741,0.00000511,-0.00000232,0.00002233,-0.00000995,-0.00000862,
 -0.00000943,-0.00000158,-0.00001153,-0.00001016,0.00000903,-0.00001539
 ,-0.00000661,0.00000187,0.00000597,-0.00029972,0.00006617,0.00003452,0
 .00015170,-0.00006150,-0.00440409,0.00257852,0.00243965,-0.00103901,-0
 .00013177,0.00065999,-0.00593091,0.01518591,-0.02599945,-0.00200672,0.
 00108982,0.00351284,0.00011855,-0.00028354,-0.00028844,-0.08732096,0.0
 5108654,-0.06989551,0.00061570,-0.00133309,-0.00027902,0.01068784,-0.0
 1091378,0.01667053,0.00053832,-0.00062557,0.00097550,0.08839995,0.0000
 5357,0.00011904,-0.00003622,-0.00024777,0.00002321,0.00044804,0.000124
 88,-0.00012327,-0.00001832,-0.00005081,0.00003294,-0.00005113,0.000026
 03,-0.00004743,0.00002218,0.00001573,-0.00003485,0.00000170,-0.0000410
 5,-0.00000665,0.00000475,0.00000693,-0.00000352,-0.00000015,0.00001765
 ,-0.00001086,-0.00000282,-0.00000075,-0.00000764,0.00000607,0.00000391
 ,0.00000504,-0.00000165,0.00000305,0.00000692,-0.00000246,0.00000934,0
 .00000156,0.00000050,-0.00004237,0.00006236,-0.00005071,-0.00004091,-0
 .00005536,0.00006900,0.00346822,0.00536940,0.00187042,0.00008698,-0.00
 001704,-0.00040000,0.00152117,-0.00209379,0.00740439,0.00021924,0.0057
 6272,0.00268469,-0.00030717,-0.00100979,-0.00045771,0.05159774,-0.1108
 5111,0.11786267,-0.00107016,-0.00256003,-0.00172066,0.00243972,-0.0002
 7617,0.00390353,0.00019263,0.00004479,0.00023387,-0.05671594,0.1081961
 4,-0.00006831,-0.00005406,-0.00000289,0.00005051,0.00013816,0.00007149
 ,0.00003746,0.00007831,-0.00005365,0.00001110,-0.00001186,-0.00001662,
 -0.00000227,0.00003370,-0.00000046,-0.00005986,0.00000510,0.00000134,-
 0.00000941,-0.00001185,-0.00000812,-0.00000813,0.00000184,0.,-0.000009
 82,0.00000851,-0.00000104,0.00000268,0.00000978,-0.00000013,-0.0000033
 3,-0.00000517,-0.00000218,-0.00000424,-0.00000363,0.00000436,-0.000009
 21,-0.00000134,0.00000048,-0.00011911,-0.00009463,-0.00001740,0.000068
 57,0.00012243,0.00003339,0.00125838,0.00183390,0.00275022,0.00082115,-
 0.00039778,0.00012906,0.00136362,-0.00084466,0.00270425,0.00475026,0.0
 0240504,-0.00081293,-0.00031158,-0.00044473,-0.00025129,-0.06958432,0.
 11828923,-0.22958498,-0.00088180,-0.00167163,0.00019586,-0.01077929,0.
 01176521,-0.01440665,-0.00057722,0.00076513,-0.00083967,0.07433251,-0.
 13009064,0.23996289,0.00003071,-0.00004209,-0.00001141,0.00003054,-0.0
 0024618,-0.00018016,-0.00007235,0.00001401,0.00002432,0.00004115,-0.00
 003289,0.00001502,-0.00000437,0.00004613,-0.00001272,-0.00005955,-0.00
 000423,0.00002172,0.00000165,-0.00002396,-0.00000542,-0.00000945,0.000
 00352,-0.00000052,-0.00000675,0.00000877,-0.00000140,0.00000299,0.0000
 0812,-0.00000293,-0.00000447,-0.00000653,-0.00000106,-0.00000248,-0.00
 000357,0.00000275,-0.00001146,-0.00000093,-0.00000025,-0.00004787,-0.0
 0000086,-0.00004641,0.00008893,0.00009276,0.00006531,0.00038145,-0.000
 40226,0.00010458,0.00176855,0.00226394,-0.00096826,0.00050048,0.000144
 85,0.00419735,-0.00587870,0.00165344,0.00171382,-0.00037579,0.00012810
 ,0.00014575,-0.01389513,0.00663933,-0.00310936,-0.00083276,0.00038577,
 -0.00019848,-0.30402799,0.08777748,-0.00323721,0.00060206,-0.00093111,
 -0.00084066,0.00062707,-0.00126984,-0.00026835,0.32115352,0.00017307,-
 0.00002618,-0.00005175,-0.00016524,-0.00073669,-0.00054272,-0.00022873
 ,0.00003086,-0.00000022,0.00006893,-0.00008360,0.00005897,0.00004544,0
 .00008426,-0.00001701,-0.00011082,-0.00002442,0.00002637,-0.00000259,-
 0.00000207,0.00001873,0.00000340,0.00000097,0.00000038,0.00001002,-0.0
 0000892,-0.00000340,-0.00000770,-0.00000173,-0.00000681,-0.00000233,-0
 .00000006,-0.00000129,0.00000185,0.00000462,-0.00000102,0.00000144,-0.
 00000276,-0.00000124,0.00010839,0.00008111,0.00003698,-0.00000314,-0.0
 0001987,-0.00003375,-0.00047892,-0.00072095,0.00024341,0.00148251,0.00
 406432,0.00541541,0.00096524,0.00532100,0.00374314,0.01559647,-0.00226
 839,-0.00139904,0.00086583,-0.00002082,-0.00003240,-0.00733956,0.00452
 268,-0.00040493,-0.00042746,0.00029742,0.00001479,0.08783544,-0.069276
 89,0.01101249,-0.00128448,-0.00241663,-0.00164801,-0.00090528,-0.00252
 662,-0.00182432,-0.09620177,0.06372936,0.00009923,0.00001565,-0.000004
 57,-0.00014142,-0.00047615,-0.00006432,-0.00016008,0.00019204,-0.00004
 074,0.00002482,-0.00005269,0.00002968,0.00001095,0.00003552,-0.0000105
 4,-0.00003571,-0.00004263,0.00002162,-0.00000731,-0.00003895,0.0000004
 3,-0.00000124,-0.00000204,0.00000114,0.00000570,-0.00000398,-0.0000032
 2,-0.00000488,-0.00000165,-0.00000464,-0.00000412,-0.00000111,-0.00000
 133,-0.00000328,0.00000004,0.00000142,-0.00000028,-0.00000287,0.000000
 05,0.00013181,-0.00004430,0.00009753,-0.00004784,-0.00005821,-0.000092
 03,0.00009184,0.00021491,-0.00140372,0.00021617,0.00500459,-0.00244428
 ,0.00298878,0.00397847,-0.00223488,-0.02528184,0.00729127,0.00372722,-
 0.00135059,0.00046804,0.00011272,0.02395034,-0.00904563,0.00487306,0.0
 0132006,-0.00039229,0.00016878,-0.00325621,0.01114302,-0.05496770,-0.0
 0020585,-0.00189897,0.00014314,-0.00093302,-0.00167933,0.00014467,0.00
 259396,-0.01460277,0.05195048\\0.00000549,-0.00000243,-0.00000006,-0.0
 0000205,0.00001760,-0.00000359,-0.00000819,0.00001332,0.00000689,0.000
 00400,-0.00000490,-0.00000271,-0.00000025,-0.00000340,-0.00000245,-0.0
 0000089,0.00000006,-0.00000162,0.00000011,0.00000082,-0.00000097,0.000
 00010,0.00000035,-0.00000145,-0.00000084,0.00000035,0.00000165,-0.0000
 0024,0.00000125,0.00000255,-0.00000129,-0.00000062,-0.00000315,0.00000
 101,-0.00000109,-0.00000226,-0.00000036,-0.00000042,-0.00000041,-0.000
 00190,-0.00001738,0.00000550,0.00000244,-0.00000308,-0.00000345,0.0000
 0575,-0.00000475,0.00000104,-0.00000780,0.00000469,-0.00000827,-0.0000
 1402,0.00000298,0.00000956,0.00000884,-0.00000078,-0.00000277,0.000001
 97,-0.00000060,0.00000562,0.00001730,-0.00000754,-0.00000195,0.0000021
 0,0.00000150,-0.00000559,-0.00000384,0.00000046,0.00000543,-0.00000211
 ,-0.00000135,0.00000353,-0.00000211,0.00000378,-0.00000148,-0.00000322
 ,0.00000117,0.00000043\\\@
 The archive entry for this job was punched.


 TO DETECT ERRORS, THE PROGRAMMER MUST HAVE A CONNIVING MIND,
 ONE THAT DELIGHTS IN UNCOVERING FLAWS WHERE BEAUTY AND
 PERFECTION WERE ONCE THOUGHT TO LIE.

             -- THE PSYCHOLOGY OF COMPUTER PROGRAMMING
                GERALD M. WEINBERG
 Job cpu time:       0 days  1 hours 42 minutes  4.5 seconds.
 Elapsed time:       0 days  0 hours 12 minutes 46.1 seconds.
 File lengths (MBytes):  RWF=    335 Int=      0 D2E=      0 Chk=     17 Scr=      1
 Normal termination of Gaussian 16 at Thu Nov 18 16:57:48 2021.
