 Entering Gaussian System, Link 0=/home/rtong2/g16/g16
 Input=/home/rtong2/g16/111821/A11PDB.gjf
 Output=/home/rtong2/g16/111821/A11PDB.log
 Initial command:
 /home/rtong2/g16/l1.exe "/tmp/Gau-3572.inp" -scrdir="/tmp/"
 Default is to use a total of  16 processors:
                               16 via shared-memory
                                1 via Linda
 Entering Link 1 = /home/rtong2/g16/l1.exe PID=      3574.
  
 Copyright (c) 1988-2019, Gaussian, Inc.  All Rights Reserved.
  
 This is part of the Gaussian(R) 16 program.  It is based on
 the Gaussian(R) 09 system (copyright 2009, Gaussian, Inc.),
 the Gaussian(R) 03 system (copyright 2003, Gaussian, Inc.),
 the Gaussian(R) 98 system (copyright 1998, Gaussian, Inc.),
 the Gaussian(R) 94 system (copyright 1995, Gaussian, Inc.),
 the Gaussian 92(TM) system (copyright 1992, Gaussian, Inc.),
 the Gaussian 90(TM) system (copyright 1990, Gaussian, Inc.),
 the Gaussian 88(TM) system (copyright 1988, Gaussian, Inc.),
 the Gaussian 86(TM) system (copyright 1986, Carnegie Mellon
 University), and the Gaussian 82(TM) system (copyright 1983,
 Carnegie Mellon University). Gaussian is a federally registered
 trademark of Gaussian, Inc.
  
 This software contains proprietary and confidential information,
 including trade secrets, belonging to Gaussian, Inc.
  
 This software is provided under written license and may be
 used, copied, transmitted, or stored only in accord with that
 written license.
  
 The following legend is applicable only to US Government
 contracts under FAR:
  
                    RESTRICTED RIGHTS LEGEND
  
 Use, reproduction and disclosure by the US Government is
 subject to restrictions as set forth in subparagraphs (a)
 and (c) of the Commercial Computer Software - Restricted
 Rights clause in FAR 52.227-19.
  
 Gaussian, Inc.
 340 Quinnipiac St., Bldg. 40, Wallingford CT 06492
  
  
 ---------------------------------------------------------------
 Warning -- This program may not be used in any manner that
 competes with the business of Gaussian, Inc. or will provide
 assistance to any competitor of Gaussian, Inc.  The licensee
 of this program is prohibited from giving any competitor of
 Gaussian, Inc. access to this program.  By using this program,
 the user acknowledges that Gaussian, Inc. is engaged in the
 business of creating and licensing software in the field of
 computational chemistry and represents and warrants to the
 licensee that it is not a competitor of Gaussian, Inc. and that
 it will not use this program in any manner prohibited above.
 ---------------------------------------------------------------
  

 Cite this work as:
 Gaussian 16, Revision C.01,
 M. J. Frisch, G. W. Trucks, H. B. Schlegel, G. E. Scuseria, 
 M. A. Robb, J. R. Cheeseman, G. Scalmani, V. Barone, 
 G. A. Petersson, H. Nakatsuji, X. Li, M. Caricato, A. V. Marenich, 
 J. Bloino, B. G. Janesko, R. Gomperts, B. Mennucci, H. P. Hratchian, 
 J. V. Ortiz, A. F. Izmaylov, J. L. Sonnenberg, D. Williams-Young, 
 F. Ding, F. Lipparini, F. Egidi, J. Goings, B. Peng, A. Petrone, 
 T. Henderson, D. Ranasinghe, V. G. Zakrzewski, J. Gao, N. Rega, 
 G. Zheng, W. Liang, M. Hada, M. Ehara, K. Toyota, R. Fukuda, 
 J. Hasegawa, M. Ishida, T. Nakajima, Y. Honda, O. Kitao, H. Nakai, 
 T. Vreven, K. Throssell, J. A. Montgomery, Jr., J. E. Peralta, 
 F. Ogliaro, M. J. Bearpark, J. J. Heyd, E. N. Brothers, K. N. Kudin, 
 V. N. Staroverov, T. A. Keith, R. Kobayashi, J. Normand, 
 K. Raghavachari, A. P. Rendell, J. C. Burant, S. S. Iyengar, 
 J. Tomasi, M. Cossi, J. M. Millam, M. Klene, C. Adamo, R. Cammi, 
 J. W. Ochterski, R. L. Martin, K. Morokuma, O. Farkas, 
 J. B. Foresman, and D. J. Fox, Gaussian, Inc., Wallingford CT, 2019.
 
 ******************************************
 Gaussian 16:  ES64L-G16RevC.01  3-Jul-2019
                19-Nov-2021 
 ******************************************
 %mem=30GB
 %nprocshared=15
 Will use up to   15 processors via shared memory.
 %chk=/home/rtong2/g16/111821/A11PDB.chk
 ----------------------------------------------------
 # opt freq b3lyp/6-31g(d) scrf=(smd,solvent=toluene)
 ----------------------------------------------------
 1/18=20,19=15,26=3,38=1/1,3;
 2/9=110,12=2,17=6,18=5,40=1/2;
 3/5=1,6=6,7=1,11=2,25=1,30=1,70=32201,71=1,72=13,74=-5/1,2,3;
 4//1;
 5/5=2,38=5,53=13/2;
 6/7=2,8=2,9=2,10=2,28=1/1;
 7//1,2,3,16;
 1/18=20,19=15,26=3/3(2);
 2/9=110/2;
 99//99;
 2/9=110/2;
 3/5=1,6=6,7=1,11=2,25=1,30=1,70=32205,71=1,72=13,74=-5/1,2,3;
 4/5=5,16=3,69=1/1;
 5/5=2,38=5,53=13/2;
 7//1,2,3,16;
 1/18=20,19=15,26=3/3(-5);
 2/9=110/2;
 6/7=2,8=2,9=2,10=2,19=2,28=1/1;
 99/9=1/99;
 ------
 A11PDB
 ------
 Symbolic Z-matrix:
 Charge =  0 Multiplicity = 1
 C                     0.3467    1.37791  -0.00014 
 C                    -0.43295   0.21105   0. 
 C                     0.26907  -1.01303   0.00008 
 C                     1.67648  -1.06397   0.00002 
 C                     2.39243   0.13373  -0.00012 
 C                     1.74517   1.37157  -0.00019 
 H                    -0.15049   2.34135  -0.00021 
 H                     3.48049   0.09341  -0.00018 
 O                    -0.45498  -2.18359   0.0002 
 H                     0.15828  -2.93478   0.00022 
 C                     2.38916  -2.39771   0.0001 
 H                     2.14678  -3.00168   0.88717 
 H                     2.14668  -3.00183  -0.88684 
 H                     3.47385  -2.25676   0.00002 
 C                    -1.9769    0.26817   0.00003 
 C                    -2.53588  -0.42412   1.26698 
 H                    -3.63242  -0.37538   1.26969 
 H                    -2.24254  -1.47463   1.31958 
 H                    -2.1771    0.07738   2.17428 
 C                    -2.53589  -0.42394  -1.26702 
 H                    -2.24256  -1.47444  -1.31975 
 H                    -3.63243  -0.37517  -1.26972 
 H                    -2.1771    0.07769  -2.17423 
 C                    -2.50284   1.71776   0.00013 
 H                    -2.18371   2.27517   0.88851 
 H                    -2.1836    2.27534  -0.88811 
 H                    -3.59898   1.70312   0.00006 
 C                     2.54586   2.68705  -0.00031 
 H                     2.30187   3.25301  -0.87499 
 H                     2.29899   3.25493   0.87231 
 H                     3.59303   2.46721   0.00165 
 

 GradGradGradGradGradGradGradGradGradGradGradGradGradGradGradGradGradGrad
 Berny optimization.
 Initialization pass.
                           ----------------------------
                           !    Initial Parameters    !
                           ! (Angstroms and Degrees)  !
 --------------------------                            --------------------------
 ! Name  Definition              Value          Derivative Info.                !
 --------------------------------------------------------------------------------
 ! R1    R(1,2)                  1.4034         estimate D2E/DX2                !
 ! R2    R(1,6)                  1.3985         estimate D2E/DX2                !
 ! R3    R(1,7)                  1.0842         estimate D2E/DX2                !
 ! R4    R(2,3)                  1.4111         estimate D2E/DX2                !
 ! R5    R(2,15)                 1.545          estimate D2E/DX2                !
 ! R6    R(3,4)                  1.4083         estimate D2E/DX2                !
 ! R7    R(3,9)                  1.3764         estimate D2E/DX2                !
 ! R8    R(4,5)                  1.3954         estimate D2E/DX2                !
 ! R9    R(4,11)                 1.5122         estimate D2E/DX2                !
 ! R10   R(5,6)                  1.3969         estimate D2E/DX2                !
 ! R11   R(5,8)                  1.0888         estimate D2E/DX2                !
 ! R12   R(6,28)                 1.54           estimate D2E/DX2                !
 ! R13   R(9,10)                 0.9697         estimate D2E/DX2                !
 ! R14   R(11,12)                1.1002         estimate D2E/DX2                !
 ! R15   R(11,13)                1.1002         estimate D2E/DX2                !
 ! R16   R(11,14)                1.0938         estimate D2E/DX2                !
 ! R17   R(15,16)                1.5482         estimate D2E/DX2                !
 ! R18   R(15,20)                1.5482         estimate D2E/DX2                !
 ! R19   R(15,24)                1.5421         estimate D2E/DX2                !
 ! R20   R(16,17)                1.0976         estimate D2E/DX2                !
 ! R21   R(16,18)                1.092          estimate D2E/DX2                !
 ! R22   R(16,19)                1.097          estimate D2E/DX2                !
 ! R23   R(20,21)                1.092          estimate D2E/DX2                !
 ! R24   R(20,22)                1.0976         estimate D2E/DX2                !
 ! R25   R(20,23)                1.097          estimate D2E/DX2                !
 ! R26   R(24,25)                1.0962         estimate D2E/DX2                !
 ! R27   R(24,26)                1.0962         estimate D2E/DX2                !
 ! R28   R(24,27)                1.0962         estimate D2E/DX2                !
 ! R29   R(28,29)                1.07           estimate D2E/DX2                !
 ! R30   R(28,30)                1.07           estimate D2E/DX2                !
 ! R31   R(28,31)                1.07           estimate D2E/DX2                !
 ! A1    A(2,1,6)              123.4894         estimate D2E/DX2                !
 ! A2    A(2,1,7)              118.9544         estimate D2E/DX2                !
 ! A3    A(6,1,7)              117.5562         estimate D2E/DX2                !
 ! A4    A(1,2,3)              116.416          estimate D2E/DX2                !
 ! A5    A(1,2,15)             121.6306         estimate D2E/DX2                !
 ! A6    A(3,2,15)             121.9533         estimate D2E/DX2                !
 ! A7    A(2,3,4)              121.9074         estimate D2E/DX2                !
 ! A8    A(2,3,9)              118.4266         estimate D2E/DX2                !
 ! A9    A(4,3,9)              119.6661         estimate D2E/DX2                !
 ! A10   A(3,4,5)              118.7974         estimate D2E/DX2                !
 ! A11   A(3,4,11)             120.1907         estimate D2E/DX2                !
 ! A12   A(5,4,11)             121.0119         estimate D2E/DX2                !
 ! A13   A(4,5,6)              121.5247         estimate D2E/DX2                !
 ! A14   A(4,5,8)              118.748          estimate D2E/DX2                !
 ! A15   A(6,5,8)              119.7273         estimate D2E/DX2                !
 ! A16   A(1,6,5)              117.8651         estimate D2E/DX2                !
 ! A17   A(1,6,28)             121.0674         estimate D2E/DX2                !
 ! A18   A(5,6,28)             121.0674         estimate D2E/DX2                !
 ! A19   A(3,9,10)             109.034          estimate D2E/DX2                !
 ! A20   A(4,11,12)            112.3575         estimate D2E/DX2                !
 ! A21   A(4,11,13)            112.3577         estimate D2E/DX2                !
 ! A22   A(4,11,14)            110.7143         estimate D2E/DX2                !
 ! A23   A(12,11,13)           107.4579         estimate D2E/DX2                !
 ! A24   A(12,11,14)           106.8142         estimate D2E/DX2                !
 ! A25   A(13,11,14)           106.8142         estimate D2E/DX2                !
 ! A26   A(2,15,16)            110.1384         estimate D2E/DX2                !
 ! A27   A(2,15,20)            110.1371         estimate D2E/DX2                !
 ! A28   A(2,15,24)            112.0604         estimate D2E/DX2                !
 ! A29   A(16,15,20)           109.8449         estimate D2E/DX2                !
 ! A30   A(16,15,24)           107.287          estimate D2E/DX2                !
 ! A31   A(20,15,24)           107.2863         estimate D2E/DX2                !
 ! A32   A(15,16,17)           110.0513         estimate D2E/DX2                !
 ! A33   A(15,16,18)           111.8771         estimate D2E/DX2                !
 ! A34   A(15,16,19)           110.7519         estimate D2E/DX2                !
 ! A35   A(17,16,18)           108.1173         estimate D2E/DX2                !
 ! A36   A(17,16,19)           107.7214         estimate D2E/DX2                !
 ! A37   A(18,16,19)           108.1859         estimate D2E/DX2                !
 ! A38   A(15,20,21)           111.8764         estimate D2E/DX2                !
 ! A39   A(15,20,22)           110.0507         estimate D2E/DX2                !
 ! A40   A(15,20,23)           110.7512         estimate D2E/DX2                !
 ! A41   A(21,20,22)           108.1181         estimate D2E/DX2                !
 ! A42   A(21,20,23)           108.1871         estimate D2E/DX2                !
 ! A43   A(22,20,23)           107.7217         estimate D2E/DX2                !
 ! A44   A(15,24,25)           112.2558         estimate D2E/DX2                !
 ! A45   A(15,24,26)           112.2564         estimate D2E/DX2                !
 ! A46   A(15,24,27)           109.1763         estimate D2E/DX2                !
 ! A47   A(25,24,26)           108.2536         estimate D2E/DX2                !
 ! A48   A(25,24,27)           107.3331         estimate D2E/DX2                !
 ! A49   A(26,24,27)           107.3329         estimate D2E/DX2                !
 ! A50   A(6,28,29)            109.4712         estimate D2E/DX2                !
 ! A51   A(6,28,30)            109.4712         estimate D2E/DX2                !
 ! A52   A(6,28,31)            109.4712         estimate D2E/DX2                !
 ! A53   A(29,28,30)           109.4713         estimate D2E/DX2                !
 ! A54   A(29,28,31)           109.4712         estimate D2E/DX2                !
 ! A55   A(30,28,31)           109.4712         estimate D2E/DX2                !
 ! D1    D(6,1,2,3)             -0.0005         estimate D2E/DX2                !
 ! D2    D(6,1,2,15)          -179.9991         estimate D2E/DX2                !
 ! D3    D(7,1,2,3)            179.9997         estimate D2E/DX2                !
 ! D4    D(7,1,2,15)             0.0012         estimate D2E/DX2                !
 ! D5    D(2,1,6,5)              0.0013         estimate D2E/DX2                !
 ! D6    D(2,1,6,28)          -179.9987         estimate D2E/DX2                !
 ! D7    D(7,1,6,5)           -179.999          estimate D2E/DX2                !
 ! D8    D(7,1,6,28)             0.001          estimate D2E/DX2                !
 ! D9    D(1,2,3,4)              0.0001         estimate D2E/DX2                !
 ! D10   D(1,2,3,9)           -179.9992         estimate D2E/DX2                !
 ! D11   D(15,2,3,4)           179.9986         estimate D2E/DX2                !
 ! D12   D(15,2,3,9)            -0.0006         estimate D2E/DX2                !
 ! D13   D(1,2,15,16)         -119.358          estimate D2E/DX2                !
 ! D14   D(1,2,15,20)          119.3373         estimate D2E/DX2                !
 ! D15   D(1,2,15,24)           -0.0095         estimate D2E/DX2                !
 ! D16   D(3,2,15,16)           60.6436         estimate D2E/DX2                !
 ! D17   D(3,2,15,20)          -60.6612         estimate D2E/DX2                !
 ! D18   D(3,2,15,24)          179.9921         estimate D2E/DX2                !
 ! D19   D(2,3,4,5)             -0.0003         estimate D2E/DX2                !
 ! D20   D(2,3,4,11)          -179.9994         estimate D2E/DX2                !
 ! D21   D(9,3,4,5)            179.9989         estimate D2E/DX2                !
 ! D22   D(9,3,4,11)            -0.0002         estimate D2E/DX2                !
 ! D23   D(2,3,9,10)           179.9985         estimate D2E/DX2                !
 ! D24   D(4,3,9,10)            -0.0007         estimate D2E/DX2                !
 ! D25   D(3,4,5,6)              0.0011         estimate D2E/DX2                !
 ! D26   D(3,4,5,8)           -179.9994         estimate D2E/DX2                !
 ! D27   D(11,4,5,6)          -179.9998         estimate D2E/DX2                !
 ! D28   D(11,4,5,8)            -0.0003         estimate D2E/DX2                !
 ! D29   D(3,4,11,12)          -60.6648         estimate D2E/DX2                !
 ! D30   D(3,4,11,13)           60.6627         estimate D2E/DX2                !
 ! D31   D(3,4,11,14)          179.999          estimate D2E/DX2                !
 ! D32   D(5,4,11,12)          119.3361         estimate D2E/DX2                !
 ! D33   D(5,4,11,13)         -119.3364         estimate D2E/DX2                !
 ! D34   D(5,4,11,14)           -0.0001         estimate D2E/DX2                !
 ! D35   D(4,5,6,1)             -0.0015         estimate D2E/DX2                !
 ! D36   D(4,5,6,28)           179.9985         estimate D2E/DX2                !
 ! D37   D(8,5,6,1)            179.999          estimate D2E/DX2                !
 ! D38   D(8,5,6,28)            -0.001          estimate D2E/DX2                !
 ! D39   D(1,6,28,29)          -60.113          estimate D2E/DX2                !
 ! D40   D(1,6,28,30)           59.8871         estimate D2E/DX2                !
 ! D41   D(1,6,28,31)          179.8871         estimate D2E/DX2                !
 ! D42   D(5,6,28,29)          119.887          estimate D2E/DX2                !
 ! D43   D(5,6,28,30)         -120.1129         estimate D2E/DX2                !
 ! D44   D(5,6,28,31)           -0.1129         estimate D2E/DX2                !
 ! D45   D(2,15,16,17)         179.5311         estimate D2E/DX2                !
 ! D46   D(2,15,16,18)         -60.2522         estimate D2E/DX2                !
 ! D47   D(2,15,16,19)          60.5315         estimate D2E/DX2                !
 ! D48   D(20,15,16,17)        -58.9899         estimate D2E/DX2                !
 ! D49   D(20,15,16,18)         61.2267         estimate D2E/DX2                !
 ! D50   D(20,15,16,19)       -177.9896         estimate D2E/DX2                !
 ! D51   D(24,15,16,17)         57.3166         estimate D2E/DX2                !
 ! D52   D(24,15,16,18)        177.5332         estimate D2E/DX2                !
 ! D53   D(24,15,16,19)        -61.6831         estimate D2E/DX2                !
 ! D54   D(2,15,20,21)          60.2542         estimate D2E/DX2                !
 ! D55   D(2,15,20,22)        -179.5291         estimate D2E/DX2                !
 ! D56   D(2,15,20,23)         -60.5299         estimate D2E/DX2                !
 ! D57   D(16,15,20,21)        -61.2255         estimate D2E/DX2                !
 ! D58   D(16,15,20,22)         58.9912         estimate D2E/DX2                !
 ! D59   D(16,15,20,23)        177.9904         estimate D2E/DX2                !
 ! D60   D(24,15,20,21)       -177.5324         estimate D2E/DX2                !
 ! D61   D(24,15,20,22)        -57.3157         estimate D2E/DX2                !
 ! D62   D(24,15,20,23)         61.6835         estimate D2E/DX2                !
 ! D63   D(2,15,24,25)         -61.1141         estimate D2E/DX2                !
 ! D64   D(2,15,24,26)          61.1046         estimate D2E/DX2                !
 ! D65   D(2,15,24,27)         179.9953         estimate D2E/DX2                !
 ! D66   D(16,15,24,25)         59.8955         estimate D2E/DX2                !
 ! D67   D(16,15,24,26)       -177.8857         estimate D2E/DX2                !
 ! D68   D(16,15,24,27)        -58.995          estimate D2E/DX2                !
 ! D69   D(20,15,24,25)        177.8783         estimate D2E/DX2                !
 ! D70   D(20,15,24,26)        -59.9029         estimate D2E/DX2                !
 ! D71   D(20,15,24,27)         58.9877         estimate D2E/DX2                !
 --------------------------------------------------------------------------------
 Trust Radius=3.00D-01 FncErr=1.00D-07 GrdErr=1.00D-06 EigMax=2.50D+02 EigMin=1.00D-04
 Number of steps in this run=    167 maximum allowed number of steps=    186.
 GradGradGradGradGradGradGradGradGradGradGradGradGradGradGradGradGradGrad

                          Input orientation:                          
 ---------------------------------------------------------------------
 Center     Atomic      Atomic             Coordinates (Angstroms)
 Number     Number       Type             X           Y           Z
 ---------------------------------------------------------------------
      1          6           0        0.346696    1.377910   -0.000137
      2          6           0       -0.432953    0.211054    0.000002
      3          6           0        0.269069   -1.013030    0.000080
      4          6           0        1.676475   -1.063967    0.000023
      5          6           0        2.392434    0.133729   -0.000122
      6          6           0        1.745167    1.371565   -0.000188
      7          1           0       -0.150494    2.341354   -0.000206
      8          1           0        3.480492    0.093411   -0.000176
      9          8           0       -0.454977   -2.183586    0.000199
     10          1           0        0.158278   -2.934784    0.000217
     11          6           0        2.389164   -2.397709    0.000097
     12          1           0        2.146780   -3.001677    0.887172
     13          1           0        2.146676   -3.001835   -0.886843
     14          1           0        3.473846   -2.256763    0.000021
     15          6           0       -1.976899    0.268173    0.000032
     16          6           0       -2.535875   -0.424119    1.266979
     17          1           0       -3.632417   -0.375380    1.269692
     18          1           0       -2.242540   -1.474632    1.319577
     19          1           0       -2.177095    0.077376    2.174276
     20          6           0       -2.535887   -0.423936   -1.267021
     21          1           0       -2.242564   -1.474442   -1.319753
     22          1           0       -3.632429   -0.375170   -1.269720
     23          1           0       -2.177095    0.077692   -2.174235
     24          6           0       -2.502836    1.717764    0.000130
     25          1           0       -2.183706    2.275167    0.888508
     26          1           0       -2.183603    2.275338   -0.888107
     27          1           0       -3.598977    1.703120    0.000063
     28          6           0        2.545856    2.687049   -0.000313
     29          1           0        2.301870    3.253011   -0.874989
     30          1           0        2.298992    3.254928    0.872310
     31          1           0        3.593027    2.467213    0.001653
 ---------------------------------------------------------------------
                    Distance matrix (angstroms):
                    1          2          3          4          5
     1  C    0.000000
     2  C    1.403355   0.000000
     3  C    2.392200   1.411105   0.000000
     4  C    2.780481   2.464826   1.408327   0.000000
     5  C    2.394375   2.826445   2.413242   1.395376   0.000000
     6  C    1.398485   2.467994   2.804489   2.436501   1.396851
     7  H    1.084169   2.148944   3.380521   3.864457   3.367505
     8  H    3.386830   3.915213   3.396682   2.143362   1.088805
     9  O    3.650607   2.394741   1.376388   2.407620   3.671198
    10  H    4.316808   3.200914   1.924945   2.409332   3.795685
    11  C    4.292665   3.843174   2.532220   1.512215   2.531440
    12  H    4.817510   4.214704   2.875317   2.182416   3.267783
    13  H    4.817504   4.214693   2.875306   2.182419   3.267787
    14  H    4.794780   4.620952   3.437654   2.157152   2.623719
    15  C    2.574997   1.545002   2.585702   3.888668   4.371401
    16  C    3.627962   2.535933   3.133618   4.445051   5.119079
    17  H    4.529882   3.491789   4.152121   5.501867   6.178224
    18  H    4.072196   2.803109   2.874427   4.155544   5.080494
    19  H    3.576169   2.790586   3.449613   4.569468   5.060808
    20  C    3.627799   2.535920   3.133745   4.445113   5.119021
    21  H    4.072047   2.803095   2.874571   4.155618   5.080438
    22  H    4.529742   3.491776   4.152222   5.501922   6.178174
    23  H    3.575862   2.790542   3.449788   4.569550   5.060682
    24  C    2.869727   2.560193   3.891104   5.020425   5.145176
    25  H    2.828020   2.848709   4.197338   5.180755   5.129959
    26  H    2.827770   2.848646   4.197361   5.180727   5.129827
    27  H    3.959053   3.499996   4.726442   5.957110   6.193545
    28  C    2.559326   3.873480   4.344461   3.850447   2.557925
    29  H    2.846765   4.183105   4.805947   4.448939   3.240912
    30  H    2.845316   4.182059   4.805917   4.449862   3.242183
    31  H    3.424215   4.615059   4.812566   4.017761   2.624228
                    6          7          8          9         10
     6  C    0.000000
     7  H    2.129324   0.000000
     8  H    2.155233   4.270516   0.000000
     9  O    4.180877   4.535173   4.546717   0.000000
    10  H    4.589429   5.285165   4.495228   0.969732   0.000000
    11  C    3.823893   5.376670   2.719683   2.852190   2.294625
    12  H    4.480396   5.883272   3.485074   2.867949   2.178372
    13  H    4.480401   5.883263   3.485081   2.867921   2.178325
    14  H    4.019091   5.854786   2.350183   3.929504   3.384184
    15  C    3.882171   2.762940   5.460188   2.885718   3.849404
    16  C    4.812225   3.865701   6.170105   3.005094   3.894430
    17  H    5.795069   4.595332   7.240567   3.870058   4.746734
    18  H    5.073896   4.547552   6.078947   2.332114   3.104301
    19  H    4.667693   3.736453   6.061088   3.578303   4.387893
    20  C    4.812080   3.865456   6.170037   3.005395   3.894711
    21  H    5.073757   4.547336   6.078883   2.332515   3.104668
    22  H    5.794940   4.595110   7.240508   3.870305   4.746980
    23  H    4.667411   3.735998   6.060946   3.578719   4.388305
    24  C    4.262087   2.433594   6.199898   4.406161   5.359826
    25  H    4.128235   2.219942   6.134571   4.863957   5.780791
    26  H    4.128007   2.219518   6.134427   4.864076   5.780908
    27  H    5.354419   3.507047   7.260168   4.999122   5.968846
    28  C    1.540000   2.718420   2.756901   5.720846   6.107825
    29  H    2.148263   2.758705   3.483894   6.158144   6.606797
    30  H    2.148263   2.756063   3.486024   6.158113   6.607249
    31  H    2.148263   3.745637   2.376468   6.165733   6.401490
                   11         12         13         14         15
    11  C    0.000000
    12  H    1.100195   0.000000
    13  H    1.100196   1.774015   0.000000
    14  H    1.093801   1.761544   1.761545   0.000000
    15  C    5.115607   5.337009   5.336981   6.007156   0.000000
    16  C    5.454911   5.358667   5.762799   6.409408   1.548185
    17  H    6.477741   6.359471   6.704239   7.459936   2.183332
    18  H    4.903650   4.667437   5.144498   5.918617   2.202075
    19  H    5.630615   5.461968   6.127560   6.489124   2.191762
    20  C    5.455043   5.763043   5.358777   6.409488   1.548194
    21  H    4.903808   5.144833   4.667523   5.918714   2.202071
    22  H    6.477861   6.704475   6.359561   7.460012   2.183332
    23  H    5.630813   6.127856   5.462221   6.489238   2.191757
    24  C    6.392870   6.684227   6.684257   7.177576   1.542052
    25  H    6.598196   6.826287   7.053427   7.303129   2.204582
    26  H    6.598217   7.053419   6.826410   7.303112   2.204593
    27  H    7.257729   7.479024   7.479019   8.105893   2.165689
    28  C    5.087172   5.771351   5.771367   5.030153   5.128964
    29  H    5.718743   6.500029   6.256782   5.700594   5.289875
    30  H    5.720244   6.258474   6.501147   5.702623   5.288177
    31  H    5.011662   5.725778   5.726416   4.725479   5.988310
                   16         17         18         19         20
    16  C    0.000000
    17  H    1.097628   0.000000
    18  H    1.091966   1.772738   0.000000
    19  H    1.097000   1.772349   1.772998   0.000000
    20  C    2.534000   2.763991   2.807223   3.496079   0.000000
    21  H    2.807204   3.137651   2.639330   3.823698   1.091962
    22  H    2.763995   2.539412   3.137685   3.766152   1.097629
    23  H    3.496068   3.766148   3.823704   4.348511   1.096996
    24  C    2.488707   2.696107   3.464114   2.742971   2.488703
    25  H    2.748346   3.044579   3.774954   2.546277   3.472102
    26  H    3.472112   3.712339   4.351967   3.769518   2.748410
    27  H    2.694514   2.435824   3.698533   3.064636   2.694444
    28  C    6.091747   7.011593   6.480002   5.817688   6.091542
    29  H    6.443065   7.278780   6.915084   6.280430   6.089131
    30  H    6.088275   6.965534   6.572237   5.641570   6.441027
    31  H    6.893786   7.867356   7.164419   6.612558   6.894336
                   21         22         23         24         25
    21  H    0.000000
    22  H    1.772746   0.000000
    23  H    1.773005   1.772351   0.000000
    24  C    3.464103   2.696085   2.742956   0.000000
    25  H    4.351948   3.712281   3.769527   1.096247   0.000000
    26  H    3.775003   3.044654   2.546334   1.096250   1.776615
    27  H    3.698469   2.435725   3.064529   1.096239   1.766229
    28  C    6.479806   7.011403   5.817297   5.140895   4.829948
    29  H    6.572557   6.966736   5.641969   5.119376   4.917976
    30  H    6.913596   7.276514   6.277868   5.116749   4.588548
    31  H    7.164976   7.867830   6.613517   6.141760   5.847567
                   26         27         28         29         30
    26  H    0.000000
    27  H    1.766228   0.000000
    28  C    4.829644   6.223109   0.000000
    29  H    4.590804   6.163430   1.070000   0.000000
    30  H    4.914501   6.160760   1.070000   1.747303   0.000000
    31  H    5.847901   7.232480   1.070000   1.747303   1.747303
                   31
    31  H    0.000000
 Stoichiometry    C12H18O
 Framework group  C1[X(C12H18O)]
 Deg. of freedom    87
 Full point group                 C1      NOp   1
 Largest Abelian subgroup         C1      NOp   1
 Largest concise Abelian subgroup C1      NOp   1
                         Standard orientation:                         
 ---------------------------------------------------------------------
 Center     Atomic      Atomic             Coordinates (Angstroms)
 Number     Number       Type             X           Y           Z
 ---------------------------------------------------------------------
      1          6           0       -0.349684    1.375852    0.000121
      2          6           0        0.432684    0.210817   -0.000018
      3          6           0       -0.266482   -1.014901   -0.000096
      4          6           0       -1.673765   -1.069120   -0.000039
      5          6           0       -2.392515    0.126903    0.000106
      6          6           0       -1.748137    1.366246    0.000172
      7          1           0        0.145258    2.340453    0.000190
      8          1           0       -3.480476    0.084048    0.000160
      9          8           0        0.460292   -2.183765   -0.000215
     10          1           0       -0.151209   -2.936391   -0.000233
     11          6           0       -2.383342   -2.404520   -0.000113
     12          1           0       -2.139550   -3.007921   -0.887188
     13          1           0       -2.139445   -3.008079    0.886827
     14          1           0       -3.468349   -2.266104   -0.000037
     15          6           0        1.976492    0.271537   -0.000048
     16          6           0        2.537081   -0.419450   -1.266995
     17          1           0        3.633507   -0.368154   -1.269708
     18          1           0        2.246197   -1.470644   -1.319593
     19          1           0        2.177133    0.081207   -2.174292
     20          6           0        2.537093   -0.419267    1.267005
     21          1           0        2.246221   -1.470454    1.319737
     22          1           0        3.633518   -0.367944    1.269704
     23          1           0        2.177132    0.081523    2.174219
     24          6           0        2.499047    1.722350   -0.000146
     25          1           0        2.178618    2.279008   -0.888524
     26          1           0        2.178515    2.279178    0.888091
     27          1           0        3.595220    1.710263   -0.000079
     28          6           0       -2.551891    2.679859    0.000297
     29          1           0       -2.309226    3.246388    0.874973
     30          1           0       -2.306352    3.248312   -0.872327
     31          1           0       -3.598547    2.457581   -0.001669
 ---------------------------------------------------------------------
 Rotational constants (GHZ):           1.0379503           0.6690604           0.4499471
 Standard basis: 6-31G(d) (6D, 7F)
 There are   231 symmetry adapted cartesian basis functions of A   symmetry.
 There are   231 symmetry adapted basis functions of A   symmetry.
   231 basis functions,   436 primitive gaussians,   231 cartesian basis functions
    49 alpha electrons       49 beta electrons
       nuclear repulsion energy       821.9855195659 Hartrees.
 NAtoms=   31 NActive=   31 NUniq=   31 SFac= 1.00D+00 NAtFMM=   60 NAOKFM=F Big=F
 Integral buffers will be    131072 words long.
 Raffenetti 2 integral format.
 Two-electron integral symmetry is turned on.
 ------------------------------------------------------------------------------
 Polarizable Continuum Model (PCM)
 =================================
 Model                : PCM.
 Atomic radii         : SMD-Coulomb.
 Polarization charges : Total charges.
 Charge compensation  : None.
 Solution method      : On-the-fly selection.
 Cavity type          : VdW (van der Waals Surface) (Alpha=1.000).
 Cavity algorithm     : GePol (No added spheres)
                        Default sphere list used, NSphG=   31.
                        Lebedev-Laikov grids with approx.  5.0 points / Ang**2.
                        Smoothing algorithm: York/Karplus (Gamma=1.0000).
                        Polarization charges: spherical gaussians, with
                                              point-specific exponents (IZeta= 3).
                        Self-potential: point-specific (ISelfS= 7).
                        Self-field    : sphere-specific E.n sum rule (ISelfD= 2).
 1st derivatives      : Analytical E(r).r(x)/FMM algorithm (CHGder, D1EAlg=3).
                        Cavity 1st derivative terms included.
 Solvent              : Toluene, Eps=   2.374100 Eps(inf)=   2.238315
 ------------------------------------------------------------------------------
 ------------------------------------------------------------------------------
 Atomic radii for non-electrostatic terms: SMD-CDS.
 ------------------------------------------------------------------------------
 Nuclear repulsion after PCM non-electrostatic terms =      821.9779038911 Hartrees.
 One-electron integrals computed using PRISM.
 NBasis=   231 RedAO= T EigKep=  3.24D-04  NBF=   231
 NBsUse=   231 1.00D-06 EigRej= -1.00D+00 NBFU=   231
 ExpMin= 1.61D-01 ExpMax= 5.48D+03 ExpMxC= 8.25D+02 IAcc=3 IRadAn=         5 AccDes= 0.00D+00
 Harris functional with IExCor=  402 and IRadAn=       5 diagonalized for initial guess.
 HarFok:  IExCor=  402 AccDes= 0.00D+00 IRadAn=         5 IDoV= 1 UseB2=F ITyADJ=14
 ICtDFT=  3500011 ScaDFX=  1.000000  1.000000  1.000000  1.000000
 FoFCou: FMM=F IPFlag=           0 FMFlag=      100000 FMFlg1=           0
         NFxFlg=           0 DoJE=T BraDBF=F KetDBF=T FulRan=T
         wScrn=  0.000000 ICntrl=       500 IOpCl=  0 I1Cent=   200000004 NGrid=           0
         NMat0=    1 NMatS0=      1 NMatT0=    0 NMatD0=    1 NMtDS0=    0 NMtDT0=    0
 Petite list used in FoFCou.
 Requested convergence on RMS density matrix=1.00D-08 within 128 cycles.
 Requested convergence on MAX density matrix=1.00D-06.
 Requested convergence on             energy=1.00D-06.
 No special actions if energy rises.
 Inv3:  Mode=1 IEnd=    13217403.
 Iteration    1 A*A^-1 deviation from unit magnitude is 4.88D-15 for   2092.
 Iteration    1 A*A^-1 deviation from orthogonality  is 2.23D-15 for   2090   2022.
 Iteration    1 A^-1*A deviation from unit magnitude is 4.88D-15 for   2092.
 Iteration    1 A^-1*A deviation from orthogonality  is 2.24D-15 for   2097   2001.
 Error on total polarization charges =  0.02951
 SCF Done:  E(RB3LYP) =  -543.361458561     A.U. after   12 cycles
            NFock= 12  Conv=0.88D-08     -V/T= 2.0097
 SMD-CDS (non-electrostatic) energy       (kcal/mol) =      -4.78
 (included in total energy above)

 **********************************************************************

            Population analysis using the SCF Density.

 **********************************************************************

 Orbital symmetries:
       Occupied  (A) (A) (A) (A) (A) (A) (A) (A) (A) (A) (A) (A)
                 (A) (A) (A) (A) (A) (A) (A) (A) (A) (A) (A) (A)
                 (A) (A) (A) (A) (A) (A) (A) (A) (A) (A) (A) (A)
                 (A) (A) (A) (A) (A) (A) (A) (A) (A) (A) (A) (A)
                 (A)
       Virtual   (A) (A) (A) (A) (A) (A) (A) (A) (A) (A) (A) (A)
                 (A) (A) (A) (A) (A) (A) (A) (A) (A) (A) (A) (A)
                 (A) (A) (A) (A) (A) (A) (A) (A) (A) (A) (A) (A)
                 (A) (A) (A) (A) (A) (A) (A) (A) (A) (A) (A) (A)
                 (A) (A) (A) (A) (A) (A) (A) (A) (A) (A) (A) (A)
                 (A) (A) (A) (A) (A) (A) (A) (A) (A) (A) (A) (A)
                 (A) (A) (A) (A) (A) (A) (A) (A) (A) (A) (A) (A)
                 (A) (A) (A) (A) (A) (A) (A) (A) (A) (A) (A) (A)
                 (A) (A) (A) (A) (A) (A) (A) (A) (A) (A) (A) (A)
                 (A) (A) (A) (A) (A) (A) (A) (A) (A) (A) (A) (A)
                 (A) (A) (A) (A) (A) (A) (A) (A) (A) (A) (A) (A)
                 (A) (A) (A) (A) (A) (A) (A) (A) (A) (A) (A) (A)
                 (A) (A) (A) (A) (A) (A) (A) (A) (A) (A) (A) (A)
                 (A) (A) (A) (A) (A) (A) (A) (A) (A) (A) (A) (A)
                 (A) (A) (A) (A) (A) (A) (A) (A) (A) (A) (A) (A)
                 (A) (A)
 The electronic state is 1-A.
 Alpha  occ. eigenvalues --  -19.16996 -10.23522 -10.19313 -10.18667 -10.18639
 Alpha  occ. eigenvalues --  -10.18243 -10.17987 -10.17473 -10.17142 -10.16660
 Alpha  occ. eigenvalues --  -10.16247 -10.15724 -10.15723  -1.04983  -0.84627
 Alpha  occ. eigenvalues --   -0.80478  -0.76663  -0.73652  -0.68597  -0.67877
 Alpha  occ. eigenvalues --   -0.66829  -0.66177  -0.60070  -0.57806  -0.52969
 Alpha  occ. eigenvalues --   -0.52617  -0.47739  -0.44921  -0.43019  -0.42862
 Alpha  occ. eigenvalues --   -0.42285  -0.41545  -0.41119  -0.40989  -0.39364
 Alpha  occ. eigenvalues --   -0.39190  -0.38056  -0.37408  -0.36209  -0.36133
 Alpha  occ. eigenvalues --   -0.35494  -0.34754  -0.33267  -0.32130  -0.30870
 Alpha  occ. eigenvalues --   -0.30579  -0.30096  -0.23074  -0.20281
 Alpha virt. eigenvalues --    0.01070   0.02204   0.07321   0.10519   0.11419
 Alpha virt. eigenvalues --    0.13753   0.14086   0.14164   0.15194   0.16010
 Alpha virt. eigenvalues --    0.16543   0.17235   0.18020   0.18335   0.19268
 Alpha virt. eigenvalues --    0.19411   0.20058   0.20872   0.21522   0.22376
 Alpha virt. eigenvalues --    0.22444   0.23697   0.23996   0.25268   0.26011
 Alpha virt. eigenvalues --    0.27207   0.27312   0.30011   0.36148   0.37751
 Alpha virt. eigenvalues --    0.38589   0.39419   0.47798   0.48953   0.50012
 Alpha virt. eigenvalues --    0.51403   0.51950   0.51987   0.54752   0.55788
 Alpha virt. eigenvalues --    0.56742   0.57043   0.59513   0.60545   0.60905
 Alpha virt. eigenvalues --    0.62173   0.63177   0.63645   0.64212   0.67901
 Alpha virt. eigenvalues --    0.68390   0.70095   0.70872   0.71182   0.72512
 Alpha virt. eigenvalues --    0.74375   0.74579   0.77375   0.78051   0.80177
 Alpha virt. eigenvalues --    0.81371   0.83403   0.84889   0.85020   0.85556
 Alpha virt. eigenvalues --    0.85970   0.87811   0.87818   0.89838   0.90144
 Alpha virt. eigenvalues --    0.91913   0.92439   0.93170   0.93494   0.94382
 Alpha virt. eigenvalues --    0.95079   0.95366   0.95543   0.96535   0.99370
 Alpha virt. eigenvalues --    0.99564   1.00446   1.01795   1.02033   1.03741
 Alpha virt. eigenvalues --    1.08181   1.09790   1.10594   1.14931   1.17774
 Alpha virt. eigenvalues --    1.19482   1.22460   1.25551   1.25852   1.29078
 Alpha virt. eigenvalues --    1.33157   1.34870   1.37575   1.37921   1.39961
 Alpha virt. eigenvalues --    1.41052   1.43244   1.50120   1.50209   1.51959
 Alpha virt. eigenvalues --    1.53513   1.62070   1.64509   1.65889   1.73955
 Alpha virt. eigenvalues --    1.74998   1.76069   1.76828   1.78706   1.79154
 Alpha virt. eigenvalues --    1.84449   1.85012   1.86296   1.87667   1.88262
 Alpha virt. eigenvalues --    1.89087   1.89773   1.93401   1.94184   1.94309
 Alpha virt. eigenvalues --    1.97640   1.99217   2.05892   2.06507   2.09423
 Alpha virt. eigenvalues --    2.10433   2.13024   2.15647   2.17307   2.19412
 Alpha virt. eigenvalues --    2.19532   2.21070   2.25322   2.26448   2.28488
 Alpha virt. eigenvalues --    2.28830   2.29933   2.30014   2.31702   2.32262
 Alpha virt. eigenvalues --    2.34337   2.35621   2.36021   2.38095   2.39779
 Alpha virt. eigenvalues --    2.40571   2.47402   2.49075   2.51527   2.52606
 Alpha virt. eigenvalues --    2.60345   2.67408   2.68786   2.72071   2.73399
 Alpha virt. eigenvalues --    2.75619   2.77238   2.83673   2.87906   2.91949
 Alpha virt. eigenvalues --    2.94232   3.07218   3.19499   3.42642   4.04386
 Alpha virt. eigenvalues --    4.11167   4.14292   4.16722   4.22820   4.27381
 Alpha virt. eigenvalues --    4.32411   4.32730   4.37825   4.45097   4.49905
 Alpha virt. eigenvalues --    4.73408   4.80904
          Condensed to atoms (all electrons):
               1          2          3          4          5          6
     1  C    5.132054   0.527939  -0.034996  -0.049997  -0.031142   0.498264
     2  C    0.527939   4.878083   0.455743  -0.055539  -0.049971  -0.011635
     3  C   -0.034996   0.455743   4.823541   0.453767   0.000395  -0.051740
     4  C   -0.049997  -0.055539   0.453767   4.885982   0.522775  -0.022872
     5  C   -0.031142  -0.049971   0.000395   0.522775   5.048903   0.534588
     6  C    0.498264  -0.011635  -0.051740  -0.022872   0.534588   4.701129
     7  H    0.356768  -0.042816   0.006418   0.000324   0.006555  -0.056624
     8  H    0.006442   0.000407   0.004731  -0.044783   0.347493  -0.041133
     9  O    0.003471  -0.069262   0.282211  -0.078359   0.003676   0.000152
    10  H   -0.000151   0.006830  -0.018568  -0.021078   0.000093  -0.000029
    11  C    0.000725   0.008195  -0.054778   0.307260  -0.050495   0.006762
    12  H    0.000022  -0.000153  -0.002547  -0.030499  -0.000013  -0.000127
    13  H    0.000022  -0.000153  -0.002549  -0.030502  -0.000012  -0.000127
    14  H    0.000013  -0.000111   0.003019  -0.026435  -0.000825   0.000109
    15  C   -0.052529   0.353809  -0.052054   0.006947   0.000278   0.005954
    16  C    0.000742  -0.044391  -0.008118  -0.000143  -0.000003  -0.000133
    17  H   -0.000058   0.004926   0.000204   0.000004   0.000000   0.000001
    18  H   -0.000202  -0.009322   0.001917   0.000130  -0.000011   0.000020
    19  H    0.000695  -0.002667   0.000290   0.000017  -0.000017  -0.000011
    20  C    0.000740  -0.044404  -0.008114  -0.000143  -0.000003  -0.000133
    21  H   -0.000202  -0.009323   0.001917   0.000130  -0.000011   0.000020
    22  H   -0.000058   0.004927   0.000204   0.000004   0.000000   0.000001
    23  H    0.000696  -0.002666   0.000290   0.000017  -0.000017  -0.000011
    24  C   -0.010299  -0.042674   0.005327  -0.000176   0.000006   0.000399
    25  H    0.001424  -0.006366  -0.000206   0.000001  -0.000005   0.000115
    26  H    0.001424  -0.006370  -0.000206   0.000001  -0.000005   0.000115
    27  H    0.000464   0.004133  -0.000047   0.000002   0.000000  -0.000007
    28  C   -0.061611   0.005127   0.000853   0.006750  -0.047607   0.348647
    29  H   -0.002739  -0.000052   0.000017  -0.000176   0.000494  -0.026507
    30  H   -0.002742  -0.000051   0.000017  -0.000176   0.000513  -0.026513
    31  H    0.003600  -0.000131   0.000001   0.000114  -0.002761  -0.029372
               7          8          9         10         11         12
     1  C    0.356768   0.006442   0.003471  -0.000151   0.000725   0.000022
     2  C   -0.042816   0.000407  -0.069262   0.006830   0.008195  -0.000153
     3  C    0.006418   0.004731   0.282211  -0.018568  -0.054778  -0.002547
     4  C    0.000324  -0.044783  -0.078359  -0.021078   0.307260  -0.030499
     5  C    0.006555   0.347493   0.003676   0.000093  -0.050495  -0.000013
     6  C   -0.056624  -0.041133   0.000152  -0.000029   0.006762  -0.000127
     7  H    0.610265  -0.000206  -0.000055   0.000005   0.000009  -0.000000
     8  H   -0.000206   0.610131  -0.000060  -0.000019  -0.010137   0.000146
     9  O   -0.000055  -0.000060   8.277864   0.238128  -0.008492   0.001167
    10  H    0.000005  -0.000019   0.238128   0.345543   0.019316   0.003141
    11  C    0.000009  -0.010137  -0.008492   0.019316   5.294167   0.359221
    12  H   -0.000000   0.000146   0.001167   0.003141   0.359221   0.565764
    13  H   -0.000000   0.000146   0.001167   0.003142   0.359225  -0.041600
    14  H   -0.000000   0.006653   0.000416  -0.000358   0.363188  -0.023988
    15  C   -0.017523   0.000012  -0.000227  -0.000281  -0.000168   0.000003
    16  C    0.000318  -0.000000  -0.010000   0.000306   0.000010  -0.000004
    17  H   -0.000012   0.000000   0.000171  -0.000006  -0.000000   0.000000
    18  H   -0.000012   0.000000   0.012325   0.000050  -0.000006   0.000008
    19  H   -0.000022  -0.000000   0.000013  -0.000017   0.000001   0.000000
    20  C    0.000318  -0.000000  -0.009988   0.000305   0.000010   0.000001
    21  H   -0.000012   0.000000   0.012320   0.000050  -0.000006  -0.000002
    22  H   -0.000012   0.000000   0.000171  -0.000006  -0.000000  -0.000000
    23  H   -0.000022  -0.000000   0.000014  -0.000017   0.000001  -0.000000
    24  C    0.008855  -0.000000   0.000023   0.000006   0.000001  -0.000000
    25  H    0.001815   0.000000   0.000001  -0.000000   0.000000   0.000000
    26  H    0.001816   0.000000   0.000001  -0.000000   0.000000  -0.000000
    27  H   -0.000099  -0.000000  -0.000001  -0.000000  -0.000000  -0.000000
    28  C   -0.007991  -0.009696   0.000001  -0.000000  -0.000220   0.000002
    29  H    0.002203   0.000128  -0.000000  -0.000000   0.000003  -0.000000
    30  H    0.002221   0.000126  -0.000000  -0.000000   0.000003  -0.000000
    31  H    0.000022   0.006858  -0.000000   0.000000  -0.000004   0.000000
              13         14         15         16         17         18
     1  C    0.000022   0.000013  -0.052529   0.000742  -0.000058  -0.000202
     2  C   -0.000153  -0.000111   0.353809  -0.044391   0.004926  -0.009322
     3  C   -0.002549   0.003019  -0.052054  -0.008118   0.000204   0.001917
     4  C   -0.030502  -0.026435   0.006947  -0.000143   0.000004   0.000130
     5  C   -0.000012  -0.000825   0.000278  -0.000003   0.000000  -0.000011
     6  C   -0.000127   0.000109   0.005954  -0.000133   0.000001   0.000020
     7  H   -0.000000  -0.000000  -0.017523   0.000318  -0.000012  -0.000012
     8  H    0.000146   0.006653   0.000012  -0.000000   0.000000   0.000000
     9  O    0.001167   0.000416  -0.000227  -0.010000   0.000171   0.012325
    10  H    0.003142  -0.000358  -0.000281   0.000306  -0.000006   0.000050
    11  C    0.359225   0.363188  -0.000168   0.000010  -0.000000  -0.000006
    12  H   -0.041600  -0.023988   0.000003  -0.000004   0.000000   0.000008
    13  H    0.565765  -0.023988   0.000003   0.000001  -0.000000  -0.000002
    14  H   -0.023988   0.524598   0.000001   0.000000   0.000000  -0.000000
    15  C    0.000003   0.000001   4.839663   0.370346  -0.030083  -0.023961
    16  C    0.000001   0.000000   0.370346   5.190281   0.360793   0.365288
    17  H   -0.000000   0.000000  -0.030083   0.360793   0.590791  -0.028189
    18  H   -0.000002  -0.000000  -0.023961   0.365288  -0.028189   0.540979
    19  H   -0.000000  -0.000000  -0.029195   0.364722  -0.030591  -0.028890
    20  C   -0.000004   0.000000   0.370355  -0.056121  -0.005075  -0.004611
    21  H    0.000008  -0.000000  -0.023962  -0.004612   0.000136   0.002404
    22  H    0.000000   0.000000  -0.030083  -0.005075   0.003794   0.000136
    23  H    0.000000  -0.000000  -0.029196   0.005649  -0.000045  -0.000032
    24  C   -0.000000  -0.000000   0.375204  -0.065856  -0.005526   0.005406
    25  H   -0.000000  -0.000000  -0.023539  -0.005363  -0.000070  -0.000040
    26  H    0.000000  -0.000000  -0.023535   0.006125  -0.000034  -0.000188
    27  H   -0.000000   0.000000  -0.028202  -0.005773   0.004442   0.000007
    28  C    0.000002  -0.000009  -0.000146   0.000002  -0.000000   0.000000
    29  H   -0.000000   0.000000   0.000001   0.000000  -0.000000   0.000000
    30  H   -0.000000   0.000000   0.000001  -0.000000   0.000000  -0.000000
    31  H    0.000000   0.000000   0.000002  -0.000000   0.000000  -0.000000
              19         20         21         22         23         24
     1  C    0.000695   0.000740  -0.000202  -0.000058   0.000696  -0.010299
     2  C   -0.002667  -0.044404  -0.009323   0.004927  -0.002666  -0.042674
     3  C    0.000290  -0.008114   0.001917   0.000204   0.000290   0.005327
     4  C    0.000017  -0.000143   0.000130   0.000004   0.000017  -0.000176
     5  C   -0.000017  -0.000003  -0.000011   0.000000  -0.000017   0.000006
     6  C   -0.000011  -0.000133   0.000020   0.000001  -0.000011   0.000399
     7  H   -0.000022   0.000318  -0.000012  -0.000012  -0.000022   0.008855
     8  H   -0.000000  -0.000000   0.000000   0.000000  -0.000000  -0.000000
     9  O    0.000013  -0.009988   0.012320   0.000171   0.000014   0.000023
    10  H   -0.000017   0.000305   0.000050  -0.000006  -0.000017   0.000006
    11  C    0.000001   0.000010  -0.000006  -0.000000   0.000001   0.000001
    12  H    0.000000   0.000001  -0.000002  -0.000000  -0.000000  -0.000000
    13  H   -0.000000  -0.000004   0.000008   0.000000   0.000000  -0.000000
    14  H   -0.000000   0.000000  -0.000000   0.000000  -0.000000  -0.000000
    15  C   -0.029195   0.370355  -0.023962  -0.030083  -0.029196   0.375204
    16  C    0.364722  -0.056121  -0.004612  -0.005075   0.005649  -0.065856
    17  H   -0.030591  -0.005075   0.000136   0.003794  -0.000045  -0.005526
    18  H   -0.028890  -0.004611   0.002404   0.000136  -0.000032   0.005406
    19  H    0.581663   0.005649  -0.000032  -0.000045  -0.000194  -0.005390
    20  C    0.005649   5.190249   0.365291   0.360796   0.364724  -0.065856
    21  H   -0.000032   0.365291   0.541003  -0.028190  -0.028891   0.005406
    22  H   -0.000045   0.360796  -0.028190   0.590782  -0.030590  -0.005527
    23  H   -0.000194   0.364724  -0.028891  -0.030590   0.581657  -0.005390
    24  C   -0.005390  -0.065856   0.005406  -0.005527  -0.005390   5.179787
    25  H    0.004594   0.006125  -0.000188  -0.000034  -0.000055   0.362305
    26  H   -0.000055  -0.005362  -0.000040  -0.000070   0.004593   0.362300
    27  H   -0.000094  -0.005775   0.000007   0.004443  -0.000094   0.365243
    28  C    0.000000   0.000002   0.000000  -0.000000   0.000000  -0.000010
    29  H   -0.000000  -0.000000  -0.000000   0.000000   0.000000  -0.000002
    30  H    0.000000   0.000000   0.000000  -0.000000  -0.000000  -0.000002
    31  H   -0.000000  -0.000000  -0.000000   0.000000  -0.000000  -0.000000
              25         26         27         28         29         30
     1  C    0.001424   0.001424   0.000464  -0.061611  -0.002739  -0.002742
     2  C   -0.006366  -0.006370   0.004133   0.005127  -0.000052  -0.000051
     3  C   -0.000206  -0.000206  -0.000047   0.000853   0.000017   0.000017
     4  C    0.000001   0.000001   0.000002   0.006750  -0.000176  -0.000176
     5  C   -0.000005  -0.000005   0.000000  -0.047607   0.000494   0.000513
     6  C    0.000115   0.000115  -0.000007   0.348647  -0.026507  -0.026513
     7  H    0.001815   0.001816  -0.000099  -0.007991   0.002203   0.002221
     8  H    0.000000   0.000000  -0.000000  -0.009696   0.000128   0.000126
     9  O    0.000001   0.000001  -0.000001   0.000001  -0.000000  -0.000000
    10  H   -0.000000  -0.000000  -0.000000  -0.000000  -0.000000  -0.000000
    11  C    0.000000   0.000000  -0.000000  -0.000220   0.000003   0.000003
    12  H    0.000000  -0.000000  -0.000000   0.000002  -0.000000  -0.000000
    13  H   -0.000000   0.000000  -0.000000   0.000002  -0.000000  -0.000000
    14  H   -0.000000  -0.000000   0.000000  -0.000009   0.000000   0.000000
    15  C   -0.023539  -0.023535  -0.028202  -0.000146   0.000001   0.000001
    16  C   -0.005363   0.006125  -0.005773   0.000002   0.000000  -0.000000
    17  H   -0.000070  -0.000034   0.004442  -0.000000  -0.000000   0.000000
    18  H   -0.000040  -0.000188   0.000007   0.000000   0.000000  -0.000000
    19  H    0.004594  -0.000055  -0.000094   0.000000  -0.000000   0.000000
    20  C    0.006125  -0.005362  -0.005775   0.000002  -0.000000   0.000000
    21  H   -0.000188  -0.000040   0.000007   0.000000  -0.000000   0.000000
    22  H   -0.000034  -0.000070   0.004443  -0.000000   0.000000  -0.000000
    23  H   -0.000055   0.004593  -0.000094   0.000000   0.000000  -0.000000
    24  C    0.362305   0.362300   0.365243  -0.000010  -0.000002  -0.000002
    25  H    0.577381  -0.033889  -0.030013  -0.000003  -0.000001   0.000001
    26  H   -0.033889   0.577382  -0.030013  -0.000003   0.000001  -0.000001
    27  H   -0.030013  -0.030013   0.578807  -0.000000   0.000000   0.000000
    28  C   -0.000003  -0.000003  -0.000000   5.189815   0.367563   0.367573
    29  H   -0.000001   0.000001   0.000000   0.367563   0.550712  -0.031626
    30  H    0.000001  -0.000001   0.000000   0.367573  -0.031626   0.550703
    31  H   -0.000000  -0.000000   0.000000   0.368266  -0.027237  -0.027228
              31
     1  C    0.003600
     2  C   -0.000131
     3  C    0.000001
     4  C    0.000114
     5  C   -0.002761
     6  C   -0.029372
     7  H    0.000022
     8  H    0.006858
     9  O   -0.000000
    10  H    0.000000
    11  C   -0.000004
    12  H    0.000000
    13  H    0.000000
    14  H    0.000000
    15  C    0.000002
    16  C   -0.000000
    17  H    0.000000
    18  H   -0.000000
    19  H   -0.000000
    20  C   -0.000000
    21  H   -0.000000
    22  H    0.000000
    23  H   -0.000000
    24  C   -0.000000
    25  H   -0.000000
    26  H   -0.000000
    27  H    0.000000
    28  C    0.368266
    29  H   -0.027237
    30  H   -0.027228
    31  H    0.548271
 Mulliken charges:
               1
     1  C   -0.288781
     2  C    0.147937
     3  C    0.193060
     4  C    0.176653
     5  C   -0.282875
     6  C    0.170696
     7  H    0.127494
     8  H    0.122763
     9  O   -0.656850
    10  H    0.423614
    11  C   -0.593789
    12  H    0.169457
    13  H    0.169456
    14  H    0.177717
    15  C    0.042107
    16  C   -0.458993
    17  H    0.134427
    18  H    0.166796
    19  H    0.139575
    20  C   -0.458976
    21  H    0.166778
    22  H    0.134433
    23  H    0.139579
    24  C   -0.463561
    25  H    0.146010
    26  H    0.146012
    27  H    0.142570
    28  C   -0.527309
    29  H    0.167218
    30  H    0.167181
    31  H    0.159600
 Sum of Mulliken charges =  -0.00000
 Mulliken charges with hydrogens summed into heavy atoms:
               1
     1  C   -0.161287
     2  C    0.147937
     3  C    0.193060
     4  C    0.176653
     5  C   -0.160112
     6  C    0.170696
     9  O   -0.233236
    11  C   -0.077160
    15  C    0.042107
    16  C   -0.018195
    20  C   -0.018186
    24  C   -0.028969
    28  C   -0.033310
 Electronic spatial extent (au):  <R**2>=           2688.2881
 Charge=             -0.0000 electrons
 Dipole moment (field-independent basis, Debye):
    X=             -1.5518    Y=             -0.9858    Z=              0.0002  Tot=              1.8385
 Quadrupole moment (field-independent basis, Debye-Ang):
   XX=            -76.5551   YY=            -71.0838   ZZ=            -82.6697
   XY=              3.9645   XZ=             -0.0001   YZ=              0.0011
 Traceless Quadrupole moment (field-independent basis, Debye-Ang):
   XX=              0.2144   YY=              5.6857   ZZ=             -5.9002
   XY=              3.9645   XZ=             -0.0001   YZ=              0.0011
 Octapole moment (field-independent basis, Debye-Ang**2):
  XXX=            -14.3262  YYY=            -31.9568  ZZZ=              0.0018  XYY=            -13.9396
  XXY=             -3.8973  XXZ=             -0.0001  XZZ=              1.2446  YZZ=             -2.6269
  YYZ=             -0.0011  XYZ=             -0.0030
 Hexadecapole moment (field-independent basis, Debye-Ang**3):
 XXXX=          -2019.8768 YYYY=          -1176.7028 ZZZZ=           -280.0999 XXXY=              5.1839
 XXXZ=              0.0458 YYYX=             13.7652 YYYZ=             -0.0420 ZZZX=              0.0224
 ZZZY=             -0.0319 XXYY=           -563.4857 XXZZ=           -413.8762 YYZZ=           -254.0574
 XXYZ=             -0.0111 YYXZ=              0.0059 ZZXY=              1.5073
 N-N= 8.219779038911D+02 E-N=-2.904202452726D+03  KE= 5.381261513225D+02
 D1PCM: PCM CHGder 1st derivatives, ID1Alg=3 FixD1E=F DoIter=F DoCFld=F I1PDM=0.
 Calling FoFJK, ICntrl=      2127 FMM=F ISym2X=0 I1Cent= 0 IOpClX= 0 NMat=1 NMatS=1 NMatT=0.
 ***** Axes restored to original set *****
 -------------------------------------------------------------------
 Center     Atomic                   Forces (Hartrees/Bohr)
 Number     Number              X              Y              Z
 -------------------------------------------------------------------
      1        6          -0.000904837   -0.000018308    0.000000626
      2        6           0.000091569    0.002168975   -0.000002936
      3        6           0.002291444   -0.001254334   -0.000001912
      4        6          -0.002203148   -0.001398510   -0.000004450
      5        6           0.000016928    0.003146408    0.000001034
      6        6           0.008176900    0.005338682    0.000008253
      7        1          -0.000415353    0.000336072    0.000002619
      8        1          -0.000222483    0.000007140    0.000001963
      9        8          -0.000230449   -0.000015583   -0.000001396
     10        1           0.000034948    0.000042670   -0.000000097
     11        6          -0.000059476    0.000050536    0.000001040
     12        1           0.000015034   -0.000045252    0.000004812
     13        1           0.000014879   -0.000044738   -0.000004612
     14        1           0.000019068   -0.000003718   -0.000000027
     15        6          -0.000039278    0.000052276   -0.000002175
     16        6           0.000000533   -0.000024603    0.000025888
     17        1           0.000012733    0.000012465   -0.000002563
     18        1          -0.000002302    0.000012291   -0.000001591
     19        1          -0.000004456    0.000002230    0.000001141
     20        6           0.000003014   -0.000020314   -0.000018014
     21        1          -0.000000474    0.000007004    0.000000350
     22        1           0.000013867    0.000010044    0.000001817
     23        1          -0.000004036    0.000001404   -0.000003626
     24        6           0.000014288   -0.000056253   -0.000000627
     25        1           0.000010262    0.000005109   -0.000005910
     26        1           0.000006988    0.000002887    0.000006902
     27        1          -0.000000109    0.000007858    0.000000537
     28        6          -0.019648544   -0.033561145    0.000009026
     29        1          -0.002045388    0.012769282   -0.013479824
     30        1          -0.002090937    0.012792773    0.013438147
     31        1           0.017148813   -0.000323347    0.000025605
 -------------------------------------------------------------------
 Cartesian Forces:  Max     0.033561145 RMS     0.005316843

 GradGradGradGradGradGradGradGradGradGradGradGradGradGradGradGradGradGrad
 Berny optimization.
 FormGI is forming the generalized inverse of G from B-inverse, IUseBI=4.
 Internal  Forces:  Max     0.018241341 RMS     0.002724920
 Search for a local minimum.
 Step number   1 out of a maximum of  167
 All quantities printed in internal units (Hartrees-Bohrs-Radians)
 Mixed Optimization -- RFO/linear search
 Second derivative matrix not updated -- first step.
 ITU=  0
     Eigenvalues ---    0.00230   0.00230   0.00230   0.00230   0.00237
     Eigenvalues ---    0.00604   0.01241   0.01347   0.01478   0.01964
     Eigenvalues ---    0.01991   0.02004   0.02068   0.02076   0.02122
     Eigenvalues ---    0.02140   0.04954   0.05013   0.05180   0.05253
     Eigenvalues ---    0.05348   0.05348   0.05552   0.05552   0.05587
     Eigenvalues ---    0.06856   0.07103   0.07243   0.07243   0.14626
     Eigenvalues ---    0.15196   0.16000   0.16000   0.16000   0.16000
     Eigenvalues ---    0.16000   0.16000   0.16000   0.16000   0.16000
     Eigenvalues ---    0.16000   0.16000   0.16000   0.16000   0.16000
     Eigenvalues ---    0.16000   0.16000   0.16000   0.16000   0.23434
     Eigenvalues ---    0.23483   0.25000   0.25000   0.25000   0.25000
     Eigenvalues ---    0.25000   0.27805   0.27806   0.28080   0.28338
     Eigenvalues ---    0.28519   0.31129   0.33660   0.33661   0.33946
     Eigenvalues ---    0.33946   0.34016   0.34017   0.34100   0.34101
     Eigenvalues ---    0.34102   0.34377   0.34586   0.34587   0.34951
     Eigenvalues ---    0.35495   0.37230   0.37230   0.37230   0.41187
     Eigenvalues ---    0.41500   0.44364   0.45250   0.45635   0.46194
     Eigenvalues ---    0.49769   0.53432
 RFO step:  Lambda=-3.49476882D-03 EMin= 2.30000000D-03
 Linear search not attempted -- first point.
 Iteration  1 RMS(Cart)=  0.00644063 RMS(Int)=  0.00010776
 Iteration  2 RMS(Cart)=  0.00009682 RMS(Int)=  0.00005256
 Iteration  3 RMS(Cart)=  0.00000005 RMS(Int)=  0.00005256
 Variable       Old X    -DE/DX   Delta X   Delta X   Delta X     New X
                                 (Linear)    (Quad)   (Total)
    R1        2.65196  -0.00122   0.00000  -0.00270  -0.00270   2.64926
    R2        2.64275   0.00051   0.00000   0.00105   0.00105   2.64380
    R3        2.04878   0.00049   0.00000   0.00137   0.00137   2.05015
    R4        2.66660   0.00142   0.00000   0.00328   0.00328   2.66988
    R5        2.91963  -0.00001   0.00000  -0.00003  -0.00003   2.91960
    R6        2.66135  -0.00139   0.00000  -0.00304  -0.00304   2.65831
    R7        2.60100   0.00008   0.00000   0.00015   0.00015   2.60115
    R8        2.63688   0.00165   0.00000   0.00353   0.00353   2.64041
    R9        2.85767   0.00003   0.00000   0.00009   0.00009   2.85777
   R10        2.63967  -0.00201   0.00000  -0.00437  -0.00437   2.63530
   R11        2.05754  -0.00022   0.00000  -0.00063  -0.00063   2.05691
   R12        2.91018  -0.01056   0.00000  -0.03657  -0.03657   2.87361
   R13        1.83253  -0.00001   0.00000  -0.00002  -0.00002   1.83251
   R14        2.07907   0.00002   0.00000   0.00007   0.00007   2.07914
   R15        2.07907   0.00002   0.00000   0.00007   0.00007   2.07914
   R16        2.06698   0.00002   0.00000   0.00006   0.00006   2.06704
   R17        2.92565   0.00002   0.00000   0.00006   0.00006   2.92571
   R18        2.92566   0.00002   0.00000   0.00005   0.00005   2.92572
   R19        2.91406  -0.00005   0.00000  -0.00019  -0.00019   2.91387
   R20        2.07422  -0.00001   0.00000  -0.00004  -0.00004   2.07418
   R21        2.06352  -0.00001   0.00000  -0.00003  -0.00003   2.06349
   R22        2.07303  -0.00000   0.00000  -0.00000  -0.00000   2.07303
   R23        2.06351  -0.00000   0.00000  -0.00001  -0.00001   2.06350
   R24        2.07422  -0.00001   0.00000  -0.00004  -0.00004   2.07418
   R25        2.07302   0.00000   0.00000   0.00000   0.00000   2.07303
   R26        2.07161  -0.00000   0.00000  -0.00000  -0.00000   2.07160
   R27        2.07161  -0.00000   0.00000  -0.00001  -0.00001   2.07160
   R28        2.07159   0.00000   0.00000   0.00000   0.00000   2.07160
   R29        2.02201   0.01824   0.00000   0.04854   0.04854   2.07055
   R30        2.02201   0.01823   0.00000   0.04852   0.04852   2.07053
   R31        2.02201   0.01685   0.00000   0.04483   0.04483   2.06684
    A1        2.15530  -0.00036   0.00000  -0.00173  -0.00173   2.15357
    A2        2.07615  -0.00004   0.00000  -0.00049  -0.00049   2.07565
    A3        2.05174   0.00040   0.00000   0.00222   0.00222   2.05396
    A4        2.03184   0.00008   0.00000   0.00045   0.00045   2.03230
    A5        2.12285  -0.00003   0.00000  -0.00017  -0.00017   2.12268
    A6        2.12849  -0.00005   0.00000  -0.00028  -0.00028   2.12821
    A7        2.12768  -0.00002   0.00000   0.00021   0.00021   2.12789
    A8        2.06693  -0.00017   0.00000  -0.00081  -0.00081   2.06613
    A9        2.08857   0.00019   0.00000   0.00060   0.00060   2.08917
   A10        2.07341  -0.00022   0.00000  -0.00068  -0.00068   2.07272
   A11        2.09772   0.00012   0.00000   0.00039   0.00039   2.09811
   A12        2.11206   0.00010   0.00000   0.00029   0.00029   2.11235
   A13        2.12101  -0.00015   0.00000  -0.00072  -0.00072   2.12028
   A14        2.07254   0.00008   0.00000   0.00037   0.00037   2.07292
   A15        2.08964   0.00007   0.00000   0.00035   0.00035   2.08998
   A16        2.05713   0.00067   0.00000   0.00247   0.00247   2.05960
   A17        2.11303  -0.00184   0.00000  -0.00717  -0.00717   2.10585
   A18        2.11303   0.00117   0.00000   0.00470   0.00470   2.11773
   A19        1.90300  -0.00010   0.00000  -0.00063  -0.00063   1.90237
   A20        1.96101   0.00005   0.00000   0.00031   0.00031   1.96132
   A21        1.96101   0.00005   0.00000   0.00031   0.00031   1.96132
   A22        1.93233  -0.00002   0.00000  -0.00013  -0.00013   1.93220
   A23        1.87549  -0.00004   0.00000  -0.00021  -0.00021   1.87528
   A24        1.86426  -0.00002   0.00000  -0.00016  -0.00016   1.86410
   A25        1.86426  -0.00002   0.00000  -0.00016  -0.00016   1.86410
   A26        1.92228  -0.00000   0.00000  -0.00004  -0.00004   1.92224
   A27        1.92226  -0.00001   0.00000  -0.00007  -0.00007   1.92218
   A28        1.95582  -0.00001   0.00000  -0.00010  -0.00010   1.95572
   A29        1.91716   0.00001   0.00000   0.00010   0.00010   1.91725
   A30        1.87251   0.00000   0.00000   0.00004   0.00004   1.87255
   A31        1.87250   0.00001   0.00000   0.00008   0.00008   1.87258
   A32        1.92076  -0.00001   0.00000  -0.00008  -0.00008   1.92068
   A33        1.95262  -0.00000   0.00000   0.00002   0.00002   1.95264
   A34        1.93299   0.00000   0.00000   0.00003   0.00003   1.93301
   A35        1.88700   0.00001   0.00000   0.00005   0.00005   1.88706
   A36        1.88009  -0.00000   0.00000  -0.00004  -0.00004   1.88005
   A37        1.88820   0.00000   0.00000   0.00002   0.00002   1.88822
   A38        1.95261  -0.00000   0.00000   0.00001   0.00001   1.95262
   A39        1.92075  -0.00001   0.00000  -0.00006  -0.00006   1.92068
   A40        1.93297   0.00001   0.00000   0.00004   0.00004   1.93301
   A41        1.88702   0.00001   0.00000   0.00004   0.00004   1.88706
   A42        1.88822  -0.00000   0.00000   0.00001   0.00001   1.88823
   A43        1.88010  -0.00000   0.00000  -0.00004  -0.00004   1.88006
   A44        1.95923  -0.00000   0.00000  -0.00003  -0.00003   1.95920
   A45        1.95924  -0.00000   0.00000  -0.00003  -0.00003   1.95921
   A46        1.90549   0.00001   0.00000   0.00010   0.00010   1.90558
   A47        1.88938  -0.00001   0.00000  -0.00010  -0.00010   1.88928
   A48        1.87332  -0.00000   0.00000   0.00004   0.00004   1.87335
   A49        1.87331  -0.00000   0.00000   0.00003   0.00003   1.87334
   A50        1.91063   0.00415   0.00000   0.02501   0.02473   1.93537
   A51        1.91063   0.00414   0.00000   0.02499   0.02471   1.93534
   A52        1.91063   0.00303   0.00000   0.01922   0.01895   1.92958
   A53        1.91063  -0.00439   0.00000  -0.02827  -0.02854   1.88209
   A54        1.91063  -0.00346   0.00000  -0.02049  -0.02075   1.88988
   A55        1.91063  -0.00346   0.00000  -0.02046  -0.02072   1.88992
    D1       -0.00001   0.00000   0.00000  -0.00001  -0.00001  -0.00002
    D2       -3.14158   0.00000   0.00000  -0.00000  -0.00000  -3.14158
    D3        3.14159   0.00000   0.00000   0.00000   0.00000   3.14159
    D4        0.00002   0.00000   0.00000   0.00001   0.00001   0.00003
    D5        0.00002  -0.00000   0.00000  -0.00003  -0.00003  -0.00001
    D6       -3.14157  -0.00000   0.00000  -0.00014  -0.00014   3.14148
    D7       -3.14157  -0.00000   0.00000  -0.00004  -0.00004   3.14157
    D8        0.00002  -0.00000   0.00000  -0.00015  -0.00015  -0.00013
    D9        0.00000   0.00000   0.00000   0.00003   0.00003   0.00003
   D10       -3.14158   0.00000   0.00000   0.00004   0.00004  -3.14154
   D11        3.14157   0.00000   0.00000   0.00002   0.00002   3.14159
   D12       -0.00001   0.00000   0.00000   0.00003   0.00003   0.00002
   D13       -2.08319   0.00000   0.00000   0.00050   0.00050  -2.08268
   D14        2.08283   0.00000   0.00000   0.00045   0.00045   2.08328
   D15       -0.00017   0.00000   0.00000   0.00047   0.00047   0.00030
   D16        1.05843   0.00000   0.00000   0.00051   0.00051   1.05894
   D17       -1.05874   0.00000   0.00000   0.00046   0.00046  -1.05828
   D18        3.14145   0.00000   0.00000   0.00047   0.00047  -3.14126
   D19       -0.00001  -0.00000   0.00000  -0.00001  -0.00001  -0.00001
   D20       -3.14158  -0.00000   0.00000  -0.00003  -0.00003   3.14157
   D21        3.14157  -0.00000   0.00000  -0.00002  -0.00002   3.14155
   D22       -0.00000  -0.00000   0.00000  -0.00005  -0.00005  -0.00005
   D23        3.14157  -0.00000   0.00000  -0.00001  -0.00001   3.14156
   D24       -0.00001   0.00000   0.00000   0.00000   0.00000  -0.00001
   D25        0.00002  -0.00000   0.00000  -0.00003  -0.00003  -0.00002
   D26       -3.14158  -0.00000   0.00000  -0.00001  -0.00001  -3.14159
   D27       -3.14159  -0.00000   0.00000  -0.00001  -0.00001   3.14159
   D28       -0.00001   0.00000   0.00000   0.00002   0.00002   0.00001
   D29       -1.05880  -0.00001   0.00000  -0.00008  -0.00008  -1.05888
   D30        1.05876   0.00001   0.00000   0.00010   0.00010   1.05887
   D31        3.14158   0.00000   0.00000   0.00001   0.00001   3.14159
   D32        2.08281  -0.00001   0.00000  -0.00010  -0.00010   2.08271
   D33       -2.08281   0.00001   0.00000   0.00008   0.00008  -2.08274
   D34       -0.00000  -0.00000   0.00000  -0.00001  -0.00001  -0.00002
   D35       -0.00003   0.00000   0.00000   0.00005   0.00005   0.00002
   D36        3.14157   0.00000   0.00000   0.00016   0.00016  -3.14146
   D37        3.14157   0.00000   0.00000   0.00002   0.00002  -3.14159
   D38       -0.00002   0.00000   0.00000   0.00013   0.00013   0.00012
   D39       -1.04917   0.00015   0.00000   0.00213   0.00213  -1.04704
   D40        1.04523  -0.00015   0.00000  -0.00187  -0.00187   1.04335
   D41        3.13962   0.00000   0.00000   0.00014   0.00014   3.13976
   D42        2.09242   0.00015   0.00000   0.00202   0.00201   2.09444
   D43       -2.09637  -0.00015   0.00000  -0.00199  -0.00199  -2.09835
   D44       -0.00197   0.00000   0.00000   0.00003   0.00003  -0.00194
   D45        3.13341  -0.00000   0.00000  -0.00016  -0.00016   3.13325
   D46       -1.05160  -0.00000   0.00000  -0.00013  -0.00013  -1.05173
   D47        1.05647   0.00000   0.00000  -0.00007  -0.00007   1.05640
   D48       -1.02957  -0.00001   0.00000  -0.00021  -0.00021  -1.02978
   D49        1.06861  -0.00001   0.00000  -0.00018  -0.00018   1.06842
   D50       -3.10650  -0.00000   0.00000  -0.00012  -0.00012  -3.10663
   D51        1.00036   0.00000   0.00000  -0.00004  -0.00004   1.00032
   D52        3.09854   0.00000   0.00000  -0.00002  -0.00002   3.09852
   D53       -1.07657   0.00001   0.00000   0.00004   0.00004  -1.07653
   D54        1.05163   0.00000   0.00000   0.00008   0.00008   1.05171
   D55       -3.13337   0.00000   0.00000   0.00009   0.00009  -3.13328
   D56       -1.05645   0.00000   0.00000   0.00003   0.00003  -1.05641
   D57       -1.06859   0.00000   0.00000   0.00011   0.00011  -1.06848
   D58        1.02959   0.00000   0.00000   0.00013   0.00013   1.02972
   D59        3.10652   0.00000   0.00000   0.00006   0.00006   3.10658
   D60       -3.09853  -0.00000   0.00000  -0.00003  -0.00003  -3.09856
   D61       -1.00035  -0.00000   0.00000  -0.00002  -0.00002  -1.00037
   D62        1.07658  -0.00001   0.00000  -0.00008  -0.00008   1.07650
   D63       -1.06664   0.00000   0.00000   0.00021   0.00021  -1.06643
   D64        1.06648  -0.00000   0.00000   0.00004   0.00004   1.06651
   D65        3.14151  -0.00000   0.00000   0.00012   0.00012  -3.14156
   D66        1.04537   0.00000   0.00000   0.00013   0.00013   1.04550
   D67       -3.10469  -0.00001   0.00000  -0.00004  -0.00004  -3.10474
   D68       -1.02966  -0.00000   0.00000   0.00004   0.00004  -1.02962
   D69        3.10456   0.00001   0.00000   0.00030   0.00030   3.10487
   D70       -1.04550   0.00000   0.00000   0.00013   0.00013  -1.04537
   D71        1.02953   0.00001   0.00000   0.00021   0.00021   1.02974
         Item               Value     Threshold  Converged?
 Maximum Force            0.018241     0.000450     NO 
 RMS     Force            0.002725     0.000300     NO 
 Maximum Displacement     0.031020     0.001800     NO 
 RMS     Displacement     0.006420     0.001200     NO 
 Predicted change in Energy=-1.767409D-03
 GradGradGradGradGradGradGradGradGradGradGradGradGradGradGradGradGradGrad

                          Input orientation:                          
 ---------------------------------------------------------------------
 Center     Atomic      Atomic             Coordinates (Angstroms)
 Number     Number       Type             X           Y           Z
 ---------------------------------------------------------------------
      1          6           0        0.347451    1.376578    0.000107
      2          6           0       -0.431631    0.211062    0.000038
      3          6           0        0.270458   -1.014981   -0.000089
      4          6           0        1.676212   -1.067063   -0.000110
      5          6           0        2.393337    0.132111   -0.000017
      6          6           0        1.746463    1.367544    0.000077
      7          1           0       -0.150360    2.340515    0.000200
      8          1           0        3.481069    0.092023   -0.000038
      9          8           0       -0.455334   -2.184552   -0.000228
     10          1           0        0.157295   -2.936249   -0.000337
     11          6           0        2.388299   -2.401182   -0.000220
     12          1           0        2.145864   -3.005412    0.886709
     13          1           0        2.145832   -3.005282   -0.887228
     14          1           0        3.473060   -2.260597   -0.000228
     15          6           0       -1.975538    0.268750    0.000055
     16          6           0       -2.534721   -0.422938    1.267283
     17          1           0       -3.631218   -0.373628    1.270023
     18          1           0       -2.241878   -1.473557    1.320168
     19          1           0       -2.175685    0.078670    2.174416
     20          6           0       -2.534693   -0.423550   -1.266855
     21          1           0       -2.241791   -1.474183   -1.319237
     22          1           0       -3.631192   -0.374299   -1.269620
     23          1           0       -2.175673    0.077648   -2.174220
     24          6           0       -2.500763    1.718493   -0.000277
     25          1           0       -2.181180    2.276048    0.887841
     26          1           0       -2.181286    2.275611   -0.888706
     27          1           0       -3.596914    1.704468   -0.000216
     28          6           0        2.530255    2.670634    0.000003
     29          1           0        2.292870    3.269256   -0.886467
     30          1           0        2.290098    3.270994    0.884534
     31          1           0        3.605768    2.471891    0.001861
 ---------------------------------------------------------------------
                    Distance matrix (angstroms):
                    1          2          3          4          5
     1  C    0.000000
     2  C    1.401926   0.000000
     3  C    2.392798   1.412838   0.000000
     4  C    2.781544   2.465077   1.406718   0.000000
     5  C    2.394650   2.826071   2.412972   1.397242   0.000000
     6  C    1.399041   2.466078   2.802680   2.435620   1.394539
     7  H    1.084892   2.147949   3.381782   3.866259   3.368597
     8  H    3.386687   3.914511   3.396098   2.144992   1.088471
     9  O    3.650494   2.395731   1.376470   2.406713   3.671764
    10  H    4.317017   3.201937   1.924597   2.408520   3.796672
    11  C    4.293779   3.843934   2.531167   1.512265   2.533298
    12  H    4.818940   4.216084   2.874956   2.182709   3.269798
    13  H    4.818945   4.216091   2.874950   2.182708   3.269807
    14  H    4.795673   4.621224   3.436309   2.157125   2.625044
    15  C    2.573628   1.544985   2.586980   3.888403   4.371011
    16  C    3.626418   2.535913   3.134610   4.444450   5.118582
    17  H    4.528323   3.491716   4.153023   5.501173   6.177705
    18  H    4.070682   2.803155   2.874927   4.154492   5.079988
    19  H    3.574688   2.790550   3.450820   4.569286   5.060334
    20  C    3.626624   2.535867   3.134224   4.444150   5.118507
    21  H    4.070833   2.803073   2.874442   4.154105   5.079856
    22  H    4.528507   3.491685   4.152716   5.500919   6.177644
    23  H    3.575062   2.790498   3.450253   4.568822   5.060235
    24  C    2.868663   2.560011   3.892499   5.020601   5.144786
    25  H    2.826852   2.848382   4.198788   5.181150   5.129421
    26  H    2.827147   2.848424   4.198653   5.181058   5.129477
    27  H    3.957970   3.499897   4.727788   5.957117   6.193175
    28  C    2.537561   3.849969   4.323244   3.834027   2.542213
    29  H    2.855328   4.190626   4.819804   4.468731   3.261528
    30  H    2.853927   4.189669   4.819864   4.469696   3.262771
    31  H    3.437491   4.627304   4.825202   4.030804   2.635254
                    6          7          8          9         10
     6  C    0.000000
     7  H    2.131809   0.000000
     8  H    2.153094   4.271183   0.000000
     9  O    4.179149   4.535333   4.547314   0.000000
    10  H    4.587819   5.285725   4.496433   0.969723   0.000000
    11  C    3.822990   5.378521   2.722172   2.851873   2.294271
    12  H    4.479774   5.885362   3.487577   2.868222   2.178541
    13  H    4.479778   5.885370   3.487587   2.868175   2.178445
    14  H    4.018028   5.856570   2.352634   3.929130   3.383904
    15  C    3.880804   2.761066   5.459469   2.886124   3.849804
    16  C    4.810423   3.863593   6.169361   3.005615   3.894938
    17  H    5.793435   4.592972   7.239787   3.870300   4.746964
    18  H    5.071622   4.545757   6.078331   2.332531   3.104711
    19  H    4.666067   3.734313   6.060305   3.579226   4.388859
    20  C    4.810554   3.864004   6.169282   3.004864   3.894165
    21  H    5.071703   4.546089   6.078192   2.331488   3.103666
    22  H    5.793558   4.593348   7.239720   3.869683   4.746293
    23  H    4.666321   3.735045   6.060199   3.578178   4.387719
    24  C    4.261700   2.431318   6.199010   4.406533   5.360213
[...]
 95,0.00000538,-0.00000438,0.00004651,0.00001178,0.00000033,-0.00001445
 ,0.00001722,-0.00000520,-0.00001116,0.00002760,0.00000830,0.00000369,-
 0.00000364,-0.00000127,0.00067155,0.00073290,-0.00055853,0.00014200,0.
 00076026,0.00064783,0.00007226,-0.00002581,-0.00001114,0.00012125,-0.0
 0009324,0.00024244,-0.00015147,0.00009119,0.00044967,0.00085896,-0.000
 98106,0.00088874,-0.00034773,-0.00012434,0.00003353,-0.00003089,0.0002
 3695,0.00001527,-0.00007690,0.00019364,0.00038355,-0.06300954,-0.10556
 755,-0.22348120,0.07076113,0.11658199,0.24025555,-0.00082147,-0.000007
 34,-0.00057122,0.00069885,-0.00034730,-0.00034417,0.00016299,0.0002621
 8,0.00011853,0.00004900,-0.00000953,0.00000306,0.00003541,-0.00010609,
 0.00002428,-0.00014975,0.00002916,0.00002262,-0.00208321,0.00032256,-0
 .00105170,0.00001656,-0.00000960,0.00001057,-0.00004318,-0.00019724,-0
 .00002491,-0.00001255,0.00000905,-0.00000844,0.00000630,0.00000988,-0.
 00000829,0.00000405,-0.00001319,0.00000313,0.00000356,-0.00001236,-0.0
 0000227,0.00000787,-0.00000541,0.00000019,0.00291526,0.00507324,-0.010
 31292,-0.00067405,0.00164094,0.00006462,0.00047984,0.00014992,-0.00011
 385,0.00072394,0.00044739,-0.00036349,-0.00011476,0.00001570,0.0002544
 6,0.00002304,-0.00051458,-0.00013014,-0.00013966,-0.00002822,-0.000186
 69,-0.00004205,-0.00004422,0.00015598,0.00025806,-0.00016667,0.0000099
 8,-0.07208166,-0.03902000,0.06433045,0.00250122,0.00599559,-0.00871654
 ,0.07688910,-0.00018181,0.00012011,-0.00046455,-0.00130410,0.00078553,
 0.00003895,0.00008918,-0.00042927,-0.00020802,-0.00017524,-0.00007415,
 0.00002377,-0.00000293,0.00020963,0.00000665,0.00026604,0.00016460,-0.
 00003018,0.00003225,0.00046220,0.00009392,-0.00000569,0.00002032,0.000
 01314,0.00013889,0.00018803,-0.00015732,0.00001378,0.00001910,0.000017
 55,0.00003534,0.00001129,0.00003132,-0.00000790,0.00001492,-0.00001089
 ,-0.00001531,0.00000828,0.00000471,0.00000822,0.00000126,0.00000203,-0
 .01103047,-0.01381360,0.02492775,0.00309445,-0.00651747,-0.00134678,-0
 .00002019,0.00021713,-0.00036893,-0.00076740,-0.00087491,0.00206074,0.
 00018622,0.00024034,0.00007894,-0.00026761,0.00135859,0.00172586,0.000
 28916,0.00029965,-0.00015542,-0.00004636,-0.00010222,-0.00010497,0.000
 10681,-0.00011587,-0.00100922,-0.03872437,-0.11431203,0.10467571,0.005
 99683,0.00913833,-0.01335540,0.04279424,0.12361773,0.00036921,0.000976
 74,0.00061966,0.00045063,0.00015946,0.00012548,-0.00014892,0.00013926,
 -0.00006505,0.00003615,0.00002750,0.00001803,0.00009573,-0.00000387,-0
 .00008007,-0.00002543,-0.00050197,0.00004075,-0.00031209,-0.00069664,-
 0.00036608,0.00003847,-0.00005676,-0.00000908,-0.00013435,-0.00018446,
 0.00007373,-0.00000897,-0.00000537,-0.00000436,-0.00004651,-0.00001177
 ,0.00000033,0.00001117,-0.00002762,0.00000831,0.00001445,-0.00001726,-
 0.00000521,-0.00000368,0.00000364,-0.00000127,-0.00067690,-0.00073669,
 -0.00055110,-0.00085802,0.00097922,0.00088827,0.00003109,-0.00023684,0
 .00001496,0.00034792,0.00012420,0.00003435,0.00007703,-0.00019359,0.00
 038390,-0.00014239,-0.00075834,0.00064799,-0.00012097,0.00009352,0.000
 24217,-0.00007232,0.00002566,-0.00001109,0.00015168,-0.00009136,0.0004
 4869,0.06304972,0.10560452,-0.22331720,0.00872954,0.01337366,-0.020232
 73,-0.07080747,-0.11662454,0.24007207,0.00017668,-0.00007333,-0.000000
 06,0.00064781,0.00230555,0.00000021,-0.00092701,-0.00091703,0.00000020
 ,0.00001129,0.00029939,-0.00000005,-0.00012752,-0.00003854,0.,0.000030
 90,0.00025412,-0.00000010,-0.00002491,0.00050844,-0.00000005,-0.000053
 20,0.00003113,0.,0.00029378,0.00040329,-0.00000004,0.00001583,-0.00004
 340,-0.00000002,-0.00005000,-0.00006509,0.,-0.00000972,0.00004586,-0.0
 0001073,-0.00000972,0.00004585,0.00001072,-0.00003076,0.00003053,0.,-0
 .01283626,-0.00044116,-0.00000158,0.00011749,-0.00133905,0.00051074,0.
 00087264,0.00016534,-0.00040524,0.00048175,0.00005186,0.00007802,0.000
 00182,0.00006637,0.00001243,0.00011753,-0.00134004,-0.00051165,0.00048
 215,0.00005148,-0.00007803,0.00087320,0.00016512,0.00040540,0.00000174
 ,0.00006642,-0.00001231,-0.31130604,-0.00612629,-0.00005685,-0.0086125
 5,-0.00053261,0.00001759,-0.00862442,-0.00053269,-0.00002191,0.3385327
 9,-0.00071542,-0.00120004,0.00000039,0.00064738,-0.00614915,-0.0000007
 7,0.00182760,0.00085973,-0.00000043,-0.00001805,-0.00057905,0.00000020
 ,-0.00008939,0.00002656,-0.00000005,0.00011043,0.00039445,0.00000003,-
 0.00028332,0.00076944,-0.00000007,-0.00000167,0.00004572,0.,-0.0001281
 2,-0.00004640,0.,-0.00000257,0.00002875,0.,0.00017307,0.00007642,0.000
 00002,-0.00000653,-0.00001073,0.00000425,-0.00000654,-0.00001072,-0.00
 000425,0.00004146,-0.00005387,0.,0.03134530,-0.00110839,0.00000533,0.0
 0120585,0.00103742,-0.00055657,-0.00047515,-0.00026715,0.00032478,-0.0
 0013839,0.00020544,-0.00033169,-0.00011683,-0.00005922,0.00011370,0.00
 120697,0.00103666,0.00055683,-0.00013829,0.00020555,0.00033179,-0.0004
 7541,-0.00026686,-0.00032503,-0.00011697,-0.00005906,-0.00011382,-0.00
 834451,-0.04762969,-0.00000043,-0.01626362,-0.00063513,0.00134795,-0.0
 1627796,-0.00063475,-0.00135608,0.00698453,0.05398294,0.00000070,0.000
 00025,0.00042941,0.00000088,-0.00000077,0.00027710,0.00000040,0.000000
 03,0.00037070,-0.00000007,-0.00000016,-0.00002920,0.00000013,0.0000001
 4,-0.00002409,0.00000019,-0.00000043,0.00013038,-0.00000025,-0.0000005
 5,-0.00039332,0.00000003,-0.00000004,-0.00002516,0.00000002,0.,-0.0000
 2121,0.00000001,0.,-0.00000287,0.00000004,0.,-0.00004766,-0.00000661,0
 .00000602,0.00000011,0.00000661,-0.00000604,0.00000011,0.,-0.00000001,
 -0.00000297,0.00000538,-0.00000022,-0.00163779,-0.00099151,0.00032286,
 -0.00001548,0.00005099,0.00049875,0.00011389,0.00007072,-0.00011165,-0
 .00010008,-0.00010013,0.00001986,-0.00003059,0.00099232,-0.00032390,-0
 .00001532,-0.00007044,0.00011190,-0.00010008,-0.00005092,-0.00049902,0
 .00011373,0.00010010,-0.00001975,-0.00003074,-0.00005925,-0.00000015,-
 0.04955501,-0.02769233,-0.00013809,0.00097876,0.02767977,0.00013702,0.
 00098982,0.00006320,0.00000397,0.04860129,-0.02008934,-0.03318482,0.00
 001062,-0.00456069,0.00338161,0.00000267,-0.00056984,-0.00071351,-0.00
 000073,-0.00139744,0.00281857,-0.00000499,0.01047359,0.00925625,-0.000
 00449,-0.12281597,-0.05795046,0.00001900,0.00152747,-0.00091941,-0.000
 00118,0.00050329,0.00180840,0.00000341,0.00088581,0.00115281,0.0000005
 7,0.00004392,-0.00021922,-0.00000016,0.00064093,0.00051532,0.00000035,
 -0.00004783,0.00022002,-0.00000402,-0.00004792,0.00022009,0.00000392,-
 0.00004777,-0.00005952,0.00000011,-0.00007434,-0.00109871,0.00000039,-
 0.00016428,0.00003793,-0.00010337,-0.00001564,-0.00003096,0.00006393,-
 0.00005110,-0.00002277,0.00003684,-0.00000010,0.00000343,0.00002278,-0
 .00016399,0.00003793,0.00010328,-0.00005106,-0.00002278,-0.00003683,-0
 .00001559,-0.00003090,-0.00006385,-0.00000010,0.00000343,-0.00002272,0
 .00015563,-0.00008425,-0.00000025,0.00000367,0.00003691,0.00001663,0.0
 0000370,0.00003694,-0.00001652,0.00000267,0.00002280,0.00000005,0.5669
 1749,-0.00782127,-0.00043476,0.00000007,0.00308521,0.00334346,-0.00000
 427,0.00133927,-0.00211899,-0.00000119,0.00209487,-0.00119121,0.000001
 57,-0.01532226,-0.02855929,0.00000899,-0.05178104,-0.18108672,0.000029
 05,0.00089212,0.00058024,0.00000291,-0.00149116,0.00156462,-0.00000101
 ,-0.00029694,0.00020719,0.00000051,0.00005594,0.00002992,0.00000020,-0
 .00051995,-0.00028972,0.00000071,0.00002432,-0.00007903,-0.00001848,0.
 00002422,-0.00007871,0.00001850,-0.00000821,0.00004422,-0.00000006,-0.
 00001263,0.00062733,0.00000072,0.00020545,-0.00007881,0.00012354,0.000
 08751,0.00004351,-0.00008195,-0.00001845,-0.00000134,0.00000597,-0.000
 01573,-0.00000600,-0.00001126,0.00020573,-0.00007889,-0.00012360,-0.00
 001844,-0.00000133,-0.00000599,0.00008753,0.00004352,0.00008205,-0.000
 01573,-0.00000603,0.00001121,0.00000669,0.00009992,0.00000029,0.000006
 36,-0.00001871,0.00000336,0.00000637,-0.00001863,-0.00000353,0.0000473
 0,-0.00001946,-0.00000009,-0.03817513,0.51175192,0.00000155,-0.0000011
 1,0.00214433,-0.00000389,-0.00000108,0.00480057,-0.00000267,-0.0000009
 9,-0.00093077,0.00000299,-0.00000184,0.00751625,-0.00000056,-0.0000003
 3,0.00366722,0.00000785,0.00001662,-0.06979025,0.00000171,-0.00000142,
 -0.00259931,-0.00000125,0.00000084,-0.00434461,0.00000263,0.00000460,-
 0.00056890,0.00000038,-0.00000052,0.00003169,-0.00000031,-0.00000054,0
 .00052802,0.00007842,-0.00014107,0.00003592,-0.00007839,0.00014097,0.0
 0003578,-0.00000013,0.00000008,-0.00007333,-0.00000063,-0.00000042,0.0
 0029354,-0.00006963,0.00002571,0.00002940,-0.00002676,-0.00000816,0.00
 001718,0.00000692,0.00000272,-0.00001032,0.00000012,0.00001083,-0.0000
 2054,0.00006950,-0.00002579,0.00002941,-0.00000724,-0.00000284,-0.0000
 1058,0.00002692,0.00000806,0.00001717,-0.00000018,-0.00001083,-0.00002
 055,0.00000025,0.00000007,-0.00004159,0.00004662,-0.00000633,0.0000090
 8,-0.00004663,0.00000643,0.00000944,0.00000003,-0.00000011,0.00000437,
 0.00001835,0.00004320,0.54394368,0.00021632,-0.00095734,-0.00027549,0.
 00034650,0.00056687,-0.00022458,0.00096711,-0.00016977,0.00030984,-0.0
 0069515,-0.00062895,-0.00036569,-0.00105700,0.00043578,0.00034639,0.00
 424300,-0.01038718,0.01461468,-0.00031849,0.00026349,0.00002162,0.0002
 7018,-0.00010633,-0.00000440,-0.00041657,-0.00059616,-0.00010477,-0.00
 003663,0.00008093,-0.00002039,-0.00007753,0.00000259,-0.00013208,-0.00
 001610,-0.00000947,-0.00000075,0.00002671,-0.00006498,-0.00000137,0.00
 002236,-0.00000521,-0.00000551,0.00006558,0.00003462,-0.00003148,0.000
 00280,-0.00000464,0.00000253,-0.00000938,0.00000705,-0.00000190,0.0000
 2351,0.00001188,-0.00001859,0.00000368,-0.00000086,0.00000090,-0.00000
 730,-0.00000959,0.00000683,0.00002387,0.00001044,0.00001491,-0.0000111
 3,0.00000474,-0.00000369,0.00000266,0.00000058,-0.00000743,-0.00003825
 ,-0.00002829,0.00002886,-0.00000063,-0.00000365,0.00001000,-0.00000719
 ,-0.00000128,-0.00002517,-0.00000090,0.00001857,-0.00000720,-0.0622412
 0,0.03103361,-0.04580496,0.06254866,0.00245983,0.00133083,-0.00065933,
 -0.00003805,-0.00117641,-0.00084724,0.00027186,0.00087820,0.00008476,-
 0.00004619,-0.00072128,-0.00140646,-0.00304043,-0.00145077,0.00073694,
 0.00504355,-0.01919556,0.02136289,-0.00035754,0.00041843,0.00064154,0.
 00002496,0.00001962,0.00067741,-0.00056686,-0.00095979,0.00011525,-0.0
 0004364,0.00012921,0.00001782,-0.00018859,-0.00005898,-0.00010425,-0.0
 0000094,-0.00006567,-0.00001011,0.00002337,-0.00014559,-0.00001226,0.0
 0003495,0.00002174,0.00002132,0.00015592,-0.00003507,0.00001889,-0.000
 06340,0.00001432,-0.00003772,-0.00004526,-0.00000534,0.00002352,0.0000
 4172,0.00001324,-0.00002673,0.00001017,0.00000223,-0.00000695,-0.00006
 050,0.00000088,0.00006451,0.00004138,0.00000985,0.00002530,-0.00004279
 ,-0.00000341,-0.00003405,0.00000407,0.00001215,-0.00002179,-0.00006838
 ,-0.00004768,0.00005297,0.00000248,-0.00000240,-0.00002098,0.00000174,
 0.00001514,-0.00001389,-0.00002836,0.00002349,-0.00001296,0.03182858,-
 0.12257779,0.11559084,-0.03185940,0.13601203,-0.00069247,-0.00008256,0
 .00102138,0.00021128,0.00045110,0.00013675,0.00005732,-0.00041712,0.00
 003060,0.00000125,-0.00014419,-0.00024982,0.00031244,-0.00050346,-0.00
 025119,0.00147356,-0.00121063,0.00404582,0.00031445,0.00001474,-0.0002
 9993,0.00000740,-0.00005958,0.00010607,0.00016164,0.00027460,-0.000010
 24,0.00001022,-0.00003978,-0.00002286,0.00000526,-0.00002074,0.0000227
 9,0.00000212,0.00000141,-0.00000308,0.00000389,0.00001497,0.00000149,-
 0.00000047,-0.00000873,-0.00000291,-0.00006720,0.00005712,-0.00001257,
 0.00002944,-0.00002244,0.00000388,0.00002177,0.00000535,-0.00000755,-0
 .00001437,-0.00000975,0.00001169,-0.00000658,0.00000328,0.00000636,0.0
 0002539,-0.00001350,-0.00001743,-0.00001500,-0.00000795,-0.00001027,0.
 00001774,0.00000368,0.00000954,-0.00000569,0.00000171,0.00000829,0.000
 02961,0.00001803,-0.00003045,0.00000010,0.00000791,-0.00001369,0.00000
 779,0.00000092,0.00003117,0.00000651,-0.00001468,0.00000697,-0.0467426
 3,0.11462791,-0.21794763,0.05209355,-0.12584768,0.23469238,0.00021993,
 -0.00095582,0.00027408,0.00034753,0.00056494,0.00021988,0.00096264,-0.
 00016926,-0.00031038,-0.00068855,-0.00062749,0.00036678,-0.00106196,0.
 00042334,-0.00034448,0.00427871,-0.01040892,-0.01459356,-0.00031869,0.
 00026252,-0.00002002,0.00027077,-0.00010737,0.00000404,-0.00041523,-0.
 00059433,0.00010519,-0.00003659,0.00008065,0.00002061,-0.00007771,0.00
 000219,0.00013207,0.00002665,-0.00006488,0.00000135,-0.00001610,-0.000
 00936,0.00000079,0.00002230,-0.00000520,0.00000547,0.00006524,0.000034
 95,0.00003176,-0.00000719,-0.00000956,-0.00000663,-0.00001103,0.000004
 74,0.00000361,0.00002381,0.00001042,-0.00001488,0.00000264,0.00000056,
 0.00000735,0.00000302,-0.00000469,-0.00000263,0.00002339,0.00001186,0.
 00001854,-0.00000925,0.00000706,0.00000198,0.00000365,-0.00000087,-0.0
 0000093,-0.00003808,-0.00002816,-0.00002856,-0.00000721,-0.00000132,0.
 00002513,-0.00000069,-0.00000363,-0.00001015,-0.00000079,0.00001855,0.
 00000714,-0.06247559,0.03139102,0.04611317,0.00182425,-0.00482507,-0.0
 0709664,0.06280269,0.00246169,0.00133478,0.00066219,-0.00003844,-0.001
 17277,0.00084648,0.00027231,0.00087620,-0.00008440,-0.00004237,-0.0007
 2252,0.00140409,-0.00304941,-0.00146089,-0.00074126,0.00510435,-0.0192
 3121,-0.02131159,-0.00035978,0.00041981,-0.00064214,0.00002391,0.00002
 064,-0.00067576,-0.00056617,-0.00095729,-0.00011507,-0.00004333,0.0001
 2909,-0.00001786,-0.00018926,-0.00005962,0.00010443,0.00002344,-0.0001
 4573,0.00001229,-0.00000093,-0.00006577,0.00001006,0.00003484,0.000021
 89,-0.00002126,0.00015563,-0.00003500,-0.00001908,-0.00006040,0.000000
 90,-0.00006441,-0.00004270,-0.00000342,0.00003396,0.00004139,0.0000098
 8,-0.00002527,0.00000408,0.00001209,0.00002179,-0.00006340,0.00001438,
 0.00003761,0.00004160,0.00001326,0.00002671,-0.00004520,-0.00000536,-0
 .00002350,0.00001016,0.00000221,0.00000696,-0.00006835,-0.00004772,-0.
 00005317,0.00000162,0.00001513,0.00001412,0.00000248,-0.00000244,0.000
 02089,-0.00002822,0.00002354,0.00001303,0.03217930,-0.12303242,-0.1157
 0566,-0.00484475,0.01090777,0.01454142,-0.03225258,0.13650918,0.000690
 80,0.00008347,0.00102156,-0.00021075,-0.00045026,0.00013604,-0.0000595
 4,0.00041719,0.00003021,0.00000157,0.00014794,-0.00025045,-0.00030981,
 0.00050194,-0.00025029,-0.00147524,0.00123935,0.00404165,-0.00031557,-
 0.00001456,-0.00029866,-0.00000641,0.00005939,0.00010714,-0.00016148,-
 0.00027454,-0.00000980,-0.00001027,0.00003972,-0.00002282,-0.00000493,
 0.00002078,0.00002249,-0.00000397,-0.00001471,0.00000146,-0.00000216,-
 0.00000129,-0.00000304,0.00000041,0.00000871,-0.00000287,0.00006712,-0
 .00005710,-0.00001276,-0.00002528,0.00001358,-0.00001727,-0.00001770,-
 0.00000367,0.00000947,0.00001501,0.00000797,-0.00001030,0.00000569,-0.
 00000173,0.00000823,-0.00002942,0.00002243,0.00000390,0.00001435,0.000
 00977,0.00001168,-0.00002173,-0.00000535,-0.00000755,0.00000658,-0.000
 00330,0.00000631,-0.00002960,-0.00001800,-0.00003012,-0.00000778,-0.00
 000098,0.00003119,-0.00000017,-0.00000793,-0.00001393,-0.00000644,0.00
 001472,0.00000690,0.04703871,-0.11476245,-0.21731598,0.00716080,-0.014
 61683,-0.02246908,-0.05243498,0.12597429,0.23399307,-0.00066559,-0.003
 90730,-0.00000254,-0.00059637,0.00071513,0.00000075,0.00043811,0.00026
 726,0.00000029,-0.00007478,-0.00035185,0.00000195,0.00086338,0.0026734
 3,0.00000171,-0.01609431,0.00377182,-0.00001584,0.00035502,0.00001893,
 -0.00000032,0.00080503,-0.00079840,-0.00000230,-0.00011614,-0.00044858
 ,-0.00000037,-0.00003674,0.00002493,0.,-0.00005425,0.00001885,-0.00000
 011,0.00001758,-0.00004802,-0.00000109,0.00001763,-0.00004801,0.000001
 14,0.00003601,-0.00002791,-0.00000006,0.00010152,-0.00025366,0.0000002
 1,-0.00007031,0.00001355,-0.00005842,-0.00004153,-0.00001042,0.0000351
 4,0.00001274,-0.00000677,-0.00000447,0.00000759,0.00000766,0.00000339,
 -0.00007016,0.00001356,0.00005838,0.00001272,-0.00000677,0.00000445,-0
 .00004151,-0.00001040,-0.00003510,0.00000761,0.00000763,-0.00000335,-0
 .00001621,-0.00001969,-0.00000009,0.00001590,-0.00000132,-0.00002892,0
 .00001593,-0.00000137,0.00002899,-0.00004627,-0.00000375,0.00000002,-0
 .30632839,0.04490343,-0.00033418,-0.00565372,0.00133083,-0.00015168,-0
 .00571255,0.00133850,0.00013223,0.33291208,-0.00201106,-0.00549329,-0.
 00000022,-0.00133748,0.00068594,0.00000243,0.00021063,0.00015452,-0.00
 000086,-0.00027352,0.00012424,-0.00000036,-0.00149790,0.00153906,0.000
 00125,-0.02976770,0.00562469,-0.00003843,-0.00009606,0.00001768,-0.000
 00090,0.00062762,-0.00031839,0.00000009,-0.00002729,-0.00020279,0.0000
 0038,-0.00002358,-0.00000042,-0.00000008,0.00004904,0.00006350,0.00000
 012,0.00000565,0.00000543,-0.00000378,0.00000566,0.00000547,0.00000380
 ,0.00002380,-0.00004409,0.,0.00005512,-0.00034908,0.00000026,-0.000074
 78,0.00001626,-0.00004958,-0.00002775,-0.00001157,0.00003086,0.0000068
 2,0.00000037,-0.00000331,0.00000556,0.00000261,0.00000985,-0.00007463,
 0.00001623,0.00004960,0.00000680,0.00000038,0.00000329,-0.00002772,-0.
 00001154,-0.00003082,0.00000557,0.00000260,-0.00000985,0.00000211,-0.0
 0004682,-0.00000005,-0.00000071,0.00000320,0.00000771,-0.00000074,0.00
 000319,-0.00000770,-0.00001678,0.00001354,0.00000002,0.04895212,-0.058
 65801,0.00005805,0.01720673,-0.00336339,-0.00162136,0.01725575,-0.0033
 6858,0.00167146,-0.04916129,0.06358909,0.00000034,0.00000111,0.0011173
 0,0.00000144,0.00000271,0.00050073,0.00000229,-0.00000079,-0.00001576,
 -0.00000119,-0.00000080,-0.00011576,-0.00000054,0.00000151,-0.00009602
 ,0.00001865,0.00000084,-0.00112017,-0.00000059,0.00000054,-0.00025193,
 0.00000029,-0.00000124,0.00025023,-0.00000063,-0.00000080,0.00000889,-
 0.00000004,0.00000013,-0.00000123,-0.00000012,0.00000007,-0.00007223,0
 .00000727,0.00002160,-0.00000355,-0.00000720,-0.00002169,-0.00000355,0
 .00000005,-0.00000002,0.00002324,0.00000006,0.00000017,-0.00016141,0.0
 0003837,-0.00000718,0.00000583,0.00000415,0.00000537,-0.00000883,0.000
 00028,0.00000046,0.00000332,0.00000024,-0.00000317,0.00000324,-0.00003
 828,0.00000717,0.00000577,-0.00000022,-0.00000046,0.00000335,-0.000004
 19,-0.00000535,-0.00000880,-0.00000022,0.00000317,0.00000327,-0.000000
 01,0.00000003,-0.00002520,-0.00000343,0.00000121,0.00000809,0.00000346
 ,-0.00000127,0.00000805,-0.00000002,0.,0.00000802,-0.00033987,0.000053
 13,-0.04943870,-0.02757545,0.00424530,0.00121353,0.02752492,-0.0042298
 9,0.00128362,0.00037019,-0.00007185,0.04687667\\0.00001948,0.00001040,
 -0.00000096,-0.00000206,-0.00002898,0.00000441,-0.00002872,0.00002286,
 -0.00000118,0.00003626,0.00001445,-0.00000025,-0.00000233,-0.00003861,
 0.00000012,-0.00004906,-0.00000495,0.00000067,-0.00000932,0.00000121,-
 0.00000227,0.00000124,0.00000710,-0.00000008,0.00002229,-0.00001818,0.
 00000413,0.00000369,-0.00000048,0.00000042,-0.00000063,0.00000240,-0.0
 0000023,0.00000208,0.00000243,-0.00000030,0.00000181,0.00000278,0.0000
 0045,0.00000215,0.00000300,0.00000016,-0.00000069,-0.00000079,-0.00000
 585,-0.00000237,-0.00000178,0.00000639,0.00000004,-0.00000248,0.000000
 82,-0.00000103,0.00000269,0.00000026,-0.00000075,-0.00000137,0.0000014
 9,-0.00000732,-0.00000136,-0.00000690,-0.00000576,0.00000678,-0.000001
 16,-0.00000101,-0.00000022,-0.00000098,-0.00000029,-0.00000092,-0.0000
 0085,0.00000609,-0.00000812,0.00000248,-0.00000403,-0.00000185,0.00000
 073,0.00000431,-0.00000062,0.00000030,-0.00000141,-0.00000354,-0.00000
 123,0.00003411,0.00004349,-0.00000003,0.00000099,-0.00000584,0.0000095
 4,0.00000055,-0.00000619,-0.00001014,-0.00001831,0.00000668,0.00000004
 \\\@
 The archive entry for this job was punched.


 ... THE UNIVERSE IS NOT ONLY QUEERER THAN WE SUPPOSE,
 BUT QUEERER THAN WE CAN SUPPOSE ... 

                                   -- J. B. S. HALDANE
 Job cpu time:       0 days  1 hours  5 minutes  6.4 seconds.
 Elapsed time:       0 days  0 hours  4 minutes 21.2 seconds.
 File lengths (MBytes):  RWF=    275 Int=      0 D2E=      0 Chk=     14 Scr=      1
 Normal termination of Gaussian 16 at Fri Nov 19 16:27:25 2021.
