 Entering Gaussian System, Link 0=/home/rong/g16/g16
 Input=/home/rong/g16/092321/cumylcumylbz.gjf
 Output=/home/rong/g16/092321/cumylcumylbz.log
 Initial command:
 /home/rong/g16/l1.exe "/tmp/Gau-85334.inp" -scrdir="/tmp/"
 Default is to use a total of   8 processors:
                                8 via shared-memory
                                1 via Linda
 Entering Link 1 = /home/rong/g16/l1.exe PID=     85336.
  
 Copyright (c) 1988-2019, Gaussian, Inc.  All Rights Reserved.
  
 This is part of the Gaussian(R) 16 program.  It is based on
 the Gaussian(R) 09 system (copyright 2009, Gaussian, Inc.),
 the Gaussian(R) 03 system (copyright 2003, Gaussian, Inc.),
 the Gaussian(R) 98 system (copyright 1998, Gaussian, Inc.),
 the Gaussian(R) 94 system (copyright 1995, Gaussian, Inc.),
 the Gaussian 92(TM) system (copyright 1992, Gaussian, Inc.),
 the Gaussian 90(TM) system (copyright 1990, Gaussian, Inc.),
 the Gaussian 88(TM) system (copyright 1988, Gaussian, Inc.),
 the Gaussian 86(TM) system (copyright 1986, Carnegie Mellon
 University), and the Gaussian 82(TM) system (copyright 1983,
 Carnegie Mellon University). Gaussian is a federally registered
 trademark of Gaussian, Inc.
  
 This software contains proprietary and confidential information,
 including trade secrets, belonging to Gaussian, Inc.
  
 This software is provided under written license and may be
 used, copied, transmitted, or stored only in accord with that
 written license.
  
 The following legend is applicable only to US Government
 contracts under FAR:
  
                    RESTRICTED RIGHTS LEGEND
  
 Use, reproduction and disclosure by the US Government is
 subject to restrictions as set forth in subparagraphs (a)
 and (c) of the Commercial Computer Software - Restricted
 Rights clause in FAR 52.227-19.
  
 Gaussian, Inc.
 340 Quinnipiac St., Bldg. 40, Wallingford CT 06492
  
  
 ---------------------------------------------------------------
 Warning -- This program may not be used in any manner that
 competes with the business of Gaussian, Inc. or will provide
 assistance to any competitor of Gaussian, Inc.  The licensee
 of this program is prohibited from giving any competitor of
 Gaussian, Inc. access to this program.  By using this program,
 the user acknowledges that Gaussian, Inc. is engaged in the
 business of creating and licensing software in the field of
 computational chemistry and represents and warrants to the
 licensee that it is not a competitor of Gaussian, Inc. and that
 it will not use this program in any manner prohibited above.
 ---------------------------------------------------------------
  

 Cite this work as:
 Gaussian 16, Revision C.01,
 M. J. Frisch, G. W. Trucks, H. B. Schlegel, G. E. Scuseria, 
 M. A. Robb, J. R. Cheeseman, G. Scalmani, V. Barone, 
 G. A. Petersson, H. Nakatsuji, X. Li, M. Caricato, A. V. Marenich, 
 J. Bloino, B. G. Janesko, R. Gomperts, B. Mennucci, H. P. Hratchian, 
 J. V. Ortiz, A. F. Izmaylov, J. L. Sonnenberg, D. Williams-Young, 
 F. Ding, F. Lipparini, F. Egidi, J. Goings, B. Peng, A. Petrone, 
 T. Henderson, D. Ranasinghe, V. G. Zakrzewski, J. Gao, N. Rega, 
 G. Zheng, W. Liang, M. Hada, M. Ehara, K. Toyota, R. Fukuda, 
 J. Hasegawa, M. Ishida, T. Nakajima, Y. Honda, O. Kitao, H. Nakai, 
 T. Vreven, K. Throssell, J. A. Montgomery, Jr., J. E. Peralta, 
 F. Ogliaro, M. J. Bearpark, J. J. Heyd, E. N. Brothers, K. N. Kudin, 
 V. N. Staroverov, T. A. Keith, R. Kobayashi, J. Normand, 
 K. Raghavachari, A. P. Rendell, J. C. Burant, S. S. Iyengar, 
 J. Tomasi, M. Cossi, J. M. Millam, M. Klene, C. Adamo, R. Cammi, 
 J. W. Ochterski, R. L. Martin, K. Morokuma, O. Farkas, 
 J. B. Foresman, and D. J. Fox, Gaussian, Inc., Wallingford CT, 2019.
 
 ******************************************
 Gaussian 16:  ES64L-G16RevC.01  3-Jul-2019
                23-Sep-2021 
 ******************************************
 %mem=15GB
 %chk=cumylcumylbz.chk
 %nprocshared=8
 Will use up to    8 processors via shared memory.
 ----------------------------------------------------
 # opt freq b3lyp/6-31g(d) scrf=(smd,solvent=toluene)
 ----------------------------------------------------
 1/18=20,19=15,26=3,38=1/1,3;
 2/9=110,12=2,17=6,18=5,40=1/2;
 3/5=1,6=6,7=1,11=2,25=1,30=1,70=32201,71=1,72=13,74=-5/1,2,3;
 4//1;
 5/5=2,38=5,53=13/2;
 6/7=2,8=2,9=2,10=2,28=1/1;
 7//1,2,3,16;
 1/18=20,19=15,26=3/3(2);
 2/9=110/2;
 99//99;
 2/9=110/2;
 3/5=1,6=6,7=1,11=2,25=1,30=1,70=32205,71=1,72=13,74=-5/1,2,3;
 4/5=5,16=3,69=1/1;
 5/5=2,38=5,53=13/2;
 7//1,2,3,16;
 1/18=20,19=15,26=3/3(-5);
 2/9=110/2;
 6/7=2,8=2,9=2,10=2,19=2,28=1/1;
 99/9=1/99;
 ------------
 cumylcumylbz
 ------------
 Symbolic Z-matrix:
 Charge =  0 Multiplicity = 1
 C                     0.41176  -0.60294   0. 
 C                     1.80692  -0.60294   0. 
 C                     2.50446   0.60481   0. 
 C                     1.80681   1.81332  -0.0012 
 C                     0.41198   1.81324  -0.00168 
 C                    -0.28562   0.60503  -0.00068 
 H                    -0.13799  -1.55526   0.00045 
 H                    -0.13814   2.76552  -0.00263 
 C                     2.57731   3.14671  -0.00128 
 H                     2.77628   3.44373   1.00723 
 H                     3.50173   3.02443  -0.52606 
 H                     1.98927   3.89841  -0.48507 
 O                     3.93446   0.60491   0.00082 
 H                     4.25471  -0.17404   0.46155 
 C                     2.57648  -1.93688   0.00184 
 C                     3.39749  -2.05407   1.29945 
 H                     3.29563  -3.04184   1.69799 
 H                     4.42818  -1.85923   1.08821 
 H                     3.03912  -1.34256   2.01375 
 C                     1.57747  -3.10595  -0.08088 
 H                     0.98633  -3.00791  -0.96735 
 H                     2.11334  -4.03164  -0.1101 
 H                     0.93862  -3.0906    0.77734 
 C                     3.52402  -1.98454  -1.21121 
 C                     4.89231  -2.17899  -1.02029 
 C                     3.01435  -1.83344  -2.50076 
 C                     5.75075  -2.22163  -2.11869 
 H                     5.29391  -2.29731  -0.00345 
 C                     3.87278  -1.87706  -3.59967 
 H                     1.93593  -1.68036  -2.65143 
 C                     5.24082  -2.07098  -3.40884 
 H                     6.82934  -2.37426  -1.96824 
 H                     3.47059  -1.75831  -4.61634 
 H                     5.91785  -2.1047   -4.27474 
 C                    -1.82562   0.60529  -0.00093 
 C                    -2.33875   2.0412    0.21464 
 H                    -2.04238   2.65361  -0.61119 
 H                    -3.40629   2.03145   0.28642 
 H                    -1.9241    2.4362    1.11849 
 C                    -2.33929  -0.2993    1.13461 
 H                    -2.25541  -1.32441   0.83963 
 H                    -1.75501  -0.13265   2.01537 
 H                    -3.36434  -0.06936   1.3378 
 C                    -2.33882   0.07424  -1.35231 
 C                    -2.90093  -1.20013  -1.43293 
 C                    -2.2418    0.86726  -2.49565 
 C                    -3.36527  -1.68154  -2.65679 
 H                    -2.97657  -1.82539  -0.5315 
 C                    -2.70714   0.38624  -3.71978 
 H                    -1.79896   1.87175  -2.43226 
 C                    -3.26869  -0.888    -3.80055 
 H                    -3.80777  -2.68624  -2.72054 
 H                    -2.63088   1.01189  -4.62101 
 H                    -3.63493  -1.26776  -4.7654 
 

 GradGradGradGradGradGradGradGradGradGradGradGradGradGradGradGradGradGrad
 Berny optimization.
 Initialization pass.
                           ----------------------------
                           !    Initial Parameters    !
                           ! (Angstroms and Degrees)  !
 --------------------------                            --------------------------
 ! Name  Definition              Value          Derivative Info.                !
 --------------------------------------------------------------------------------
 ! R1    R(1,2)                  1.3952         estimate D2E/DX2                !
 ! R2    R(1,6)                  1.3948         estimate D2E/DX2                !
 ! R3    R(1,7)                  1.0996         estimate D2E/DX2                !
 ! R4    R(2,3)                  1.3947         estimate D2E/DX2                !
 ! R5    R(2,15)                 1.54           estimate D2E/DX2                !
 ! R6    R(3,4)                  1.3954         estimate D2E/DX2                !
 ! R7    R(3,13)                 1.43           estimate D2E/DX2                !
 ! R8    R(4,5)                  1.3948         estimate D2E/DX2                !
 ! R9    R(4,9)                  1.54           estimate D2E/DX2                !
 ! R10   R(5,6)                  1.3951         estimate D2E/DX2                !
 ! R11   R(5,8)                  1.0998         estimate D2E/DX2                !
 ! R12   R(6,35)                 1.54           estimate D2E/DX2                !
 ! R13   R(9,10)                 1.07           estimate D2E/DX2                !
 ! R14   R(9,11)                 1.07           estimate D2E/DX2                !
 ! R15   R(9,12)                 1.07           estimate D2E/DX2                !
 ! R16   R(13,14)                0.96           estimate D2E/DX2                !
 ! R17   R(15,16)                1.54           estimate D2E/DX2                !
 ! R18   R(15,20)                1.54           estimate D2E/DX2                !
 ! R19   R(15,24)                1.54           estimate D2E/DX2                !
 ! R20   R(16,17)                1.07           estimate D2E/DX2                !
 ! R21   R(16,18)                1.07           estimate D2E/DX2                !
 ! R22   R(16,19)                1.07           estimate D2E/DX2                !
 ! R23   R(20,21)                1.07           estimate D2E/DX2                !
 ! R24   R(20,22)                1.07           estimate D2E/DX2                !
 ! R25   R(20,23)                1.07           estimate D2E/DX2                !
 ! R26   R(24,25)                1.3952         estimate D2E/DX2                !
 ! R27   R(24,26)                1.3948         estimate D2E/DX2                !
 ! R28   R(25,27)                1.3947         estimate D2E/DX2                !
 ! R29   R(25,28)                1.0997         estimate D2E/DX2                !
 ! R30   R(26,29)                1.3951         estimate D2E/DX2                !
 ! R31   R(26,30)                1.0996         estimate D2E/DX2                !
 ! R32   R(27,31)                1.3954         estimate D2E/DX2                !
 ! R33   R(27,32)                1.0997         estimate D2E/DX2                !
 ! R34   R(29,31)                1.3948         estimate D2E/DX2                !
 ! R35   R(29,33)                1.0998         estimate D2E/DX2                !
 ! R36   R(31,34)                1.0997         estimate D2E/DX2                !
 ! R37   R(35,36)                1.54           estimate D2E/DX2                !
 ! R38   R(35,40)                1.54           estimate D2E/DX2                !
 ! R39   R(35,44)                1.54           estimate D2E/DX2                !
 ! R40   R(36,37)                1.07           estimate D2E/DX2                !
 ! R41   R(36,38)                1.07           estimate D2E/DX2                !
 ! R42   R(36,39)                1.07           estimate D2E/DX2                !
 ! R43   R(40,41)                1.07           estimate D2E/DX2                !
 ! R44   R(40,42)                1.07           estimate D2E/DX2                !
 ! R45   R(40,43)                1.07           estimate D2E/DX2                !
 ! R46   R(44,45)                1.3952         estimate D2E/DX2                !
 ! R47   R(44,46)                1.3948         estimate D2E/DX2                !
 ! R48   R(45,47)                1.3947         estimate D2E/DX2                !
 ! R49   R(45,48)                1.0997         estimate D2E/DX2                !
 ! R50   R(46,49)                1.3951         estimate D2E/DX2                !
 ! R51   R(46,50)                1.0996         estimate D2E/DX2                !
 ! R52   R(47,51)                1.3954         estimate D2E/DX2                !
 ! R53   R(47,52)                1.0997         estimate D2E/DX2                !
 ! R54   R(49,51)                1.3948         estimate D2E/DX2                !
 ! R55   R(49,53)                1.0998         estimate D2E/DX2                !
 ! R56   R(51,54)                1.0997         estimate D2E/DX2                !
 ! A1    A(2,1,6)              119.9985         estimate D2E/DX2                !
 ! A2    A(2,1,7)              119.9972         estimate D2E/DX2                !
 ! A3    A(6,1,7)              120.0043         estimate D2E/DX2                !
 ! A4    A(1,2,3)              120.0086         estimate D2E/DX2                !
 ! A5    A(1,2,15)             119.9808         estimate D2E/DX2                !
 ! A6    A(3,2,15)             120.0105         estimate D2E/DX2                !
 ! A7    A(2,3,4)              119.9942         estimate D2E/DX2                !
 ! A8    A(2,3,13)             120.0128         estimate D2E/DX2                !
 ! A9    A(4,3,13)             119.993          estimate D2E/DX2                !
 ! A10   A(3,4,5)              119.994          estimate D2E/DX2                !
 ! A11   A(3,4,9)              119.9811         estimate D2E/DX2                !
 ! A12   A(5,4,9)              120.0249         estimate D2E/DX2                !
 ! A13   A(4,5,6)              120.0047         estimate D2E/DX2                !
 ! A14   A(4,5,8)              120.0113         estimate D2E/DX2                !
 ! A15   A(6,5,8)              119.984          estimate D2E/DX2                !
 ! A16   A(1,6,5)              120.0            estimate D2E/DX2                !
 ! A17   A(1,6,35)             120.008          estimate D2E/DX2                !
 ! A18   A(5,6,35)             119.992          estimate D2E/DX2                !
 ! A19   A(4,9,10)             109.4712         estimate D2E/DX2                !
 ! A20   A(4,9,11)             109.4712         estimate D2E/DX2                !
 ! A21   A(4,9,12)             109.4712         estimate D2E/DX2                !
 ! A22   A(10,9,11)            109.4713         estimate D2E/DX2                !
 ! A23   A(10,9,12)            109.4712         estimate D2E/DX2                !
 ! A24   A(11,9,12)            109.4712         estimate D2E/DX2                !
 ! A25   A(3,13,14)            109.5            estimate D2E/DX2                !
 ! A26   A(2,15,16)            109.4712         estimate D2E/DX2                !
 ! A27   A(2,15,20)            109.4712         estimate D2E/DX2                !
 ! A28   A(2,15,24)            109.4712         estimate D2E/DX2                !
 ! A29   A(16,15,20)           109.4712         estimate D2E/DX2                !
 ! A30   A(16,15,24)           109.4713         estimate D2E/DX2                !
 ! A31   A(20,15,24)           109.4712         estimate D2E/DX2                !
 ! A32   A(15,16,17)           109.4712         estimate D2E/DX2                !
 ! A33   A(15,16,18)           109.4712         estimate D2E/DX2                !
 ! A34   A(15,16,19)           109.4712         estimate D2E/DX2                !
 ! A35   A(17,16,18)           109.4713         estimate D2E/DX2                !
 ! A36   A(17,16,19)           109.4712         estimate D2E/DX2                !
 ! A37   A(18,16,19)           109.4712         estimate D2E/DX2                !
 ! A38   A(15,20,21)           109.4712         estimate D2E/DX2                !
 ! A39   A(15,20,22)           109.4712         estimate D2E/DX2                !
 ! A40   A(15,20,23)           109.4712         estimate D2E/DX2                !
 ! A41   A(21,20,22)           109.4713         estimate D2E/DX2                !
 ! A42   A(21,20,23)           109.4712         estimate D2E/DX2                !
 ! A43   A(22,20,23)           109.4712         estimate D2E/DX2                !
 ! A44   A(15,24,25)           119.9972         estimate D2E/DX2                !
 ! A45   A(15,24,26)           120.0043         estimate D2E/DX2                !
 ! A46   A(25,24,26)           119.9985         estimate D2E/DX2                !
 ! A47   A(24,25,27)           120.0086         estimate D2E/DX2                !
 ! A48   A(24,25,28)           119.9808         estimate D2E/DX2                !
 ! A49   A(27,25,28)           120.0105         estimate D2E/DX2                !
 ! A50   A(24,26,29)           120.0            estimate D2E/DX2                !
 ! A51   A(24,26,30)           120.008          estimate D2E/DX2                !
 ! A52   A(29,26,30)           119.992          estimate D2E/DX2                !
 ! A53   A(25,27,31)           119.9942         estimate D2E/DX2                !
 ! A54   A(25,27,32)           120.0128         estimate D2E/DX2                !
 ! A55   A(31,27,32)           119.993          estimate D2E/DX2                !
 ! A56   A(26,29,31)           120.0047         estimate D2E/DX2                !
 ! A57   A(26,29,33)           119.984          estimate D2E/DX2                !
 ! A58   A(31,29,33)           120.0113         estimate D2E/DX2                !
 ! A59   A(27,31,29)           119.994          estimate D2E/DX2                !
 ! A60   A(27,31,34)           119.9811         estimate D2E/DX2                !
 ! A61   A(29,31,34)           120.0249         estimate D2E/DX2                !
 ! A62   A(6,35,36)            109.4712         estimate D2E/DX2                !
 ! A63   A(6,35,40)            109.4712         estimate D2E/DX2                !
 ! A64   A(6,35,44)            109.4712         estimate D2E/DX2                !
 ! A65   A(36,35,40)           109.4712         estimate D2E/DX2                !
 ! A66   A(36,35,44)           109.4712         estimate D2E/DX2                !
 ! A67   A(40,35,44)           109.4713         estimate D2E/DX2                !
 ! A68   A(35,36,37)           109.4712         estimate D2E/DX2                !
 ! A69   A(35,36,38)           109.4712         estimate D2E/DX2                !
 ! A70   A(35,36,39)           109.4712         estimate D2E/DX2                !
 ! A71   A(37,36,38)           109.4713         estimate D2E/DX2                !
 ! A72   A(37,36,39)           109.4712         estimate D2E/DX2                !
 ! A73   A(38,36,39)           109.4712         estimate D2E/DX2                !
 ! A74   A(35,40,41)           109.4712         estimate D2E/DX2                !
 ! A75   A(35,40,42)           109.4712         estimate D2E/DX2                !
 ! A76   A(35,40,43)           109.4712         estimate D2E/DX2                !
 ! A77   A(41,40,42)           109.4713         estimate D2E/DX2                !
 ! A78   A(41,40,43)           109.4712         estimate D2E/DX2                !
 ! A79   A(42,40,43)           109.4712         estimate D2E/DX2                !
 ! A80   A(35,44,45)           119.9972         estimate D2E/DX2                !
 ! A81   A(35,44,46)           120.0043         estimate D2E/DX2                !
 ! A82   A(45,44,46)           119.9985         estimate D2E/DX2                !
 ! A83   A(44,45,47)           120.0086         estimate D2E/DX2                !
 ! A84   A(44,45,48)           119.9808         estimate D2E/DX2                !
 ! A85   A(47,45,48)           120.0106         estimate D2E/DX2                !
 ! A86   A(44,46,49)           120.0            estimate D2E/DX2                !
 ! A87   A(44,46,50)           120.008          estimate D2E/DX2                !
 ! A88   A(49,46,50)           119.992          estimate D2E/DX2                !
 ! A89   A(45,47,51)           119.9942         estimate D2E/DX2                !
 ! A90   A(45,47,52)           120.0128         estimate D2E/DX2                !
 ! A91   A(51,47,52)           119.993          estimate D2E/DX2                !
 ! A92   A(46,49,51)           120.0047         estimate D2E/DX2                !
 ! A93   A(46,49,53)           119.984          estimate D2E/DX2                !
 ! A94   A(51,49,53)           120.0113         estimate D2E/DX2                !
 ! A95   A(47,51,49)           119.994          estimate D2E/DX2                !
 ! A96   A(47,51,54)           119.9811         estimate D2E/DX2                !
 ! A97   A(49,51,54)           120.0249         estimate D2E/DX2                !
 ! D1    D(6,1,2,3)              0.0323         estimate D2E/DX2                !
 ! D2    D(6,1,2,15)           179.9532         estimate D2E/DX2                !
 ! D3    D(7,1,2,3)           -179.9729         estimate D2E/DX2                !
 ! D4    D(7,1,2,15)            -0.052          estimate D2E/DX2                !
 ! D5    D(2,1,6,5)              0.0149         estimate D2E/DX2                !
 ! D6    D(2,1,6,35)           179.9892         estimate D2E/DX2                !
 ! D7    D(7,1,6,5)           -179.9798         estimate D2E/DX2                !
 ! D8    D(7,1,6,35)            -0.0056         estimate D2E/DX2                !
 ! D9    D(1,2,3,4)             -0.0568         estimate D2E/DX2                !
 ! D10   D(1,2,3,13)           179.9619         estimate D2E/DX2                !
 ! D11   D(15,2,3,4)          -179.9777         estimate D2E/DX2                !
 ! D12   D(15,2,3,13)            0.041          estimate D2E/DX2                !
 ! D13   D(1,2,15,16)         -116.6702         estimate D2E/DX2                !
 ! D14   D(1,2,15,20)            3.3298         estimate D2E/DX2                !
 ! D15   D(1,2,15,24)          123.3298         estimate D2E/DX2                !
 ! D16   D(3,2,15,16)           63.2507         estimate D2E/DX2                !
 ! D17   D(3,2,15,20)         -176.7493         estimate D2E/DX2                !
 ! D18   D(3,2,15,24)          -56.7493         estimate D2E/DX2                !
 ! D19   D(2,3,4,5)              0.0341         estimate D2E/DX2                !
 ! D20   D(2,3,4,9)           -179.9964         estimate D2E/DX2                !
 ! D21   D(13,3,4,5)          -179.9846         estimate D2E/DX2                !
 ! D22   D(13,3,4,9)            -0.0151         estimate D2E/DX2                !
 ! D23   D(2,3,13,14)          -30.5729         estimate D2E/DX2                !
 ! D24   D(4,3,13,14)          149.4458         estimate D2E/DX2                !
 ! D25   D(3,4,5,6)              0.0131         estimate D2E/DX2                !
 ! D26   D(3,4,5,8)           -179.9995         estimate D2E/DX2                !
 ! D27   D(9,4,5,6)           -179.9563         estimate D2E/DX2                !
 ! D28   D(9,4,5,8)              0.0311         estimate D2E/DX2                !
 ! D29   D(3,4,9,10)           -88.6005         estimate D2E/DX2                !
 ! D30   D(3,4,9,11)            31.3996         estimate D2E/DX2                !
 ! D31   D(3,4,9,12)           151.3995         estimate D2E/DX2                !
 ! D32   D(5,4,9,10)            91.369          estimate D2E/DX2                !
 ! D33   D(5,4,9,11)          -148.631          estimate D2E/DX2                !
 ! D34   D(5,4,9,12)           -28.631          estimate D2E/DX2                !
 ! D35   D(4,5,6,1)             -0.0376         estimate D2E/DX2                !
 ! D36   D(4,5,6,35)           179.9881         estimate D2E/DX2                !
 ! D37   D(8,5,6,1)            179.975          estimate D2E/DX2                !
 ! D38   D(8,5,6,35)             0.0007         estimate D2E/DX2                !
 ! D39   D(1,6,35,36)          171.431          estimate D2E/DX2                !
 ! D40   D(1,6,35,40)           51.431          estimate D2E/DX2                !
 ! D41   D(1,6,35,44)          -68.569          estimate D2E/DX2                !
 ! D42   D(5,6,35,36)           -8.5947         estimate D2E/DX2                !
 ! D43   D(5,6,35,40)         -128.5947         estimate D2E/DX2                !
 ! D44   D(5,6,35,44)          111.4053         estimate D2E/DX2                !
 ! D45   D(2,15,16,17)         136.1836         estimate D2E/DX2                !
 ! D46   D(2,15,16,18)        -103.8163         estimate D2E/DX2                !
 ! D47   D(2,15,16,19)          16.1836         estimate D2E/DX2                !
 ! D48   D(20,15,16,17)         16.1836         estimate D2E/DX2                !
 ! D49   D(20,15,16,18)        136.1837         estimate D2E/DX2                !
 ! D50   D(20,15,16,19)       -103.8164         estimate D2E/DX2                !
 ! D51   D(24,15,16,17)       -103.8164         estimate D2E/DX2                !
 ! D52   D(24,15,16,18)         16.1836         estimate D2E/DX2                !
 ! D53   D(24,15,16,19)        136.1836         estimate D2E/DX2                !
 ! D54   D(2,15,20,21)          58.2652         estimate D2E/DX2                !
 ! D55   D(2,15,20,22)         178.2652         estimate D2E/DX2                !
 ! D56   D(2,15,20,23)         -61.7348         estimate D2E/DX2                !
 ! D57   D(16,15,20,21)        178.2652         estimate D2E/DX2                !
 ! D58   D(16,15,20,22)        -61.7348         estimate D2E/DX2                !
 ! D59   D(16,15,20,23)         58.2652         estimate D2E/DX2                !
 ! D60   D(24,15,20,21)        -61.7348         estimate D2E/DX2                !
 ! D61   D(24,15,20,22)         58.2652         estimate D2E/DX2                !
 ! D62   D(24,15,20,23)        178.2652         estimate D2E/DX2                !
 ! D63   D(2,15,24,25)         122.9672         estimate D2E/DX2                !
 ! D64   D(2,15,24,26)         -57.0381         estimate D2E/DX2                !
 ! D65   D(16,15,24,25)          2.9672         estimate D2E/DX2                !
 ! D66   D(16,15,24,26)       -177.0381         estimate D2E/DX2                !
 ! D67   D(20,15,24,25)       -117.0328         estimate D2E/DX2                !
 ! D68   D(20,15,24,26)         62.9619         estimate D2E/DX2                !
 ! D69   D(15,24,25,27)       -179.9729         estimate D2E/DX2                !
 ! D70   D(15,24,25,28)         -0.052          estimate D2E/DX2                !
 ! D71   D(26,24,25,27)          0.0323         estimate D2E/DX2                !
 ! D72   D(26,24,25,28)        179.9532         estimate D2E/DX2                !
 ! D73   D(15,24,26,29)       -179.9798         estimate D2E/DX2                !
 ! D74   D(15,24,26,30)         -0.0056         estimate D2E/DX2                !
 ! D75   D(25,24,26,29)          0.0149         estimate D2E/DX2                !
 ! D76   D(25,24,26,30)        179.9892         estimate D2E/DX2                !
 ! D77   D(24,25,27,31)         -0.0568         estimate D2E/DX2                !
 ! D78   D(24,25,27,32)        179.9619         estimate D2E/DX2                !
 ! D79   D(28,25,27,31)       -179.9777         estimate D2E/DX2                !
 ! D80   D(28,25,27,32)          0.041          estimate D2E/DX2                !
 ! D81   D(24,26,29,31)         -0.0376         estimate D2E/DX2                !
 ! D82   D(24,26,29,33)        179.975          estimate D2E/DX2                !
 ! D83   D(30,26,29,31)        179.9881         estimate D2E/DX2                !
 ! D84   D(30,26,29,33)          0.0007         estimate D2E/DX2                !
 ! D85   D(25,27,31,29)          0.0341         estimate D2E/DX2                !
 ! D86   D(25,27,31,34)       -179.9964         estimate D2E/DX2                !
 ! D87   D(32,27,31,29)       -179.9846         estimate D2E/DX2                !
 ! D88   D(32,27,31,34)         -0.0151         estimate D2E/DX2                !
 ! D89   D(26,29,31,27)          0.0131         estimate D2E/DX2                !
 ! D90   D(26,29,31,34)       -179.9563         estimate D2E/DX2                !
 ! D91   D(33,29,31,27)       -179.9995         estimate D2E/DX2                !
 ! D92   D(33,29,31,34)          0.031          estimate D2E/DX2                !
 ! D93   D(6,35,36,37)          64.1286         estimate D2E/DX2                !
 ! D94   D(6,35,36,38)        -175.8714         estimate D2E/DX2                !
 ! D95   D(6,35,36,39)         -55.8714         estimate D2E/DX2                !
 ! D96   D(40,35,36,37)       -175.8714         estimate D2E/DX2                !
 ! D97   D(40,35,36,38)        -55.8714         estimate D2E/DX2                !
 ! D98   D(40,35,36,39)         64.1286         estimate D2E/DX2                !
 ! D99   D(44,35,36,37)        -55.8714         estimate D2E/DX2                !
 ! D100  D(44,35,36,38)         64.1286         estimate D2E/DX2                !
 ! D101  D(44,35,36,39)       -175.8714         estimate D2E/DX2                !
 ! D102  D(6,35,40,41)         -77.6834         estimate D2E/DX2                !
 ! D103  D(6,35,40,42)          42.3166         estimate D2E/DX2                !
 ! D104  D(6,35,40,43)         162.3166         estimate D2E/DX2                !
 ! D105  D(36,35,40,41)        162.3166         estimate D2E/DX2                !
 ! D106  D(36,35,40,42)        -77.6834         estimate D2E/DX2                !
 ! D107  D(36,35,40,43)         42.3166         estimate D2E/DX2                !
 ! D108  D(44,35,40,41)         42.3166         estimate D2E/DX2                !
 ! D109  D(44,35,40,42)        162.3166         estimate D2E/DX2                !
 ! D110  D(44,35,40,43)        -77.6834         estimate D2E/DX2                !
 ! D111  D(6,35,44,45)         106.8076         estimate D2E/DX2                !
 ! D112  D(6,35,44,46)         -73.1976         estimate D2E/DX2                !
 ! D113  D(36,35,44,45)       -133.1924         estimate D2E/DX2                !
 ! D114  D(36,35,44,46)         46.8024         estimate D2E/DX2                !
 ! D115  D(40,35,44,45)        -13.1923         estimate D2E/DX2                !
 ! D116  D(40,35,44,46)        166.8024         estimate D2E/DX2                !
 ! D117  D(35,44,45,47)       -179.9729         estimate D2E/DX2                !
 ! D118  D(35,44,45,48)         -0.052          estimate D2E/DX2                !
 ! D119  D(46,44,45,47)          0.0323         estimate D2E/DX2                !
 ! D120  D(46,44,45,48)        179.9532         estimate D2E/DX2                !
 ! D121  D(35,44,46,49)       -179.9798         estimate D2E/DX2                !
 ! D122  D(35,44,46,50)         -0.0056         estimate D2E/DX2                !
 ! D123  D(45,44,46,49)          0.0149         estimate D2E/DX2                !
 ! D124  D(45,44,46,50)        179.9892         estimate D2E/DX2                !
 ! D125  D(44,45,47,51)         -0.0568         estimate D2E/DX2                !
 ! D126  D(44,45,47,52)        179.9619         estimate D2E/DX2                !
 ! D127  D(48,45,47,51)       -179.9777         estimate D2E/DX2                !
 ! D128  D(48,45,47,52)          0.041          estimate D2E/DX2                !
 ! D129  D(44,46,49,51)         -0.0376         estimate D2E/DX2                !
 ! D130  D(44,46,49,53)        179.975          estimate D2E/DX2                !
 ! D131  D(50,46,49,51)        179.9881         estimate D2E/DX2                !
 ! D132  D(50,46,49,53)          0.0007         estimate D2E/DX2                !
 ! D133  D(45,47,51,49)          0.0341         estimate D2E/DX2                !
 ! D134  D(45,47,51,54)       -179.9964         estimate D2E/DX2                !
 ! D135  D(52,47,51,49)       -179.9846         estimate D2E/DX2                !
 ! D136  D(52,47,51,54)         -0.0151         estimate D2E/DX2                !
 ! D137  D(46,49,51,47)          0.0131         estimate D2E/DX2                !
 ! D138  D(46,49,51,54)       -179.9563         estimate D2E/DX2                !
 ! D139  D(53,49,51,47)       -179.9995         estimate D2E/DX2                !
 ! D140  D(53,49,51,54)          0.031          estimate D2E/DX2                !
 --------------------------------------------------------------------------------
 Trust Radius=3.00D-01 FncErr=1.00D-07 GrdErr=1.00D-06 EigMax=2.50D+02 EigMin=1.00D-04
 Number of steps in this run=    303 maximum allowed number of steps=    324.
 GradGradGradGradGradGradGradGradGradGradGradGradGradGradGradGradGradGrad

 Stoichiometry    C25H28O
 Framework group  C1[X(C25H28O)]
 Deg. of freedom   156
 Full point group                 C1      NOp   1
 Largest Abelian subgroup         C1      NOp   1
 Largest concise Abelian subgroup C1      NOp   1
                         Standard orientation:                         
 ---------------------------------------------------------------------
 Center     Atomic      Atomic             Coordinates (Angstroms)
 Number     Number       Type             X           Y           Z
 ---------------------------------------------------------------------
      1          6           0       -0.428285    0.500396    0.880553
      2          6           0        0.923295    0.717530    0.611194
      3          6           0        1.301110    1.652717   -0.352083
      4          6           0        0.327097    2.370429   -1.047356
      5          6           0       -1.024152    2.152952   -0.778344
      6          6           0       -1.401891    1.218153    0.185957
      7          1           0       -0.725938   -0.236643    1.640369
      8          1           0       -1.792028    2.718429   -1.326136
      9          6           0        0.744604    3.402903   -2.110975
     10          1           0        0.889671    4.355490   -1.645750
     11          1           0        1.657002    3.089296   -2.573664
     12          1           0       -0.022774    3.481292   -2.852518
     13          8           0        2.686437    1.875932   -0.627662
     14          1           0        3.200523    1.720789    0.168105
     15          6           0        1.997918   -0.074380    1.379088
     16          6           0        2.855114    0.897437    2.211186
     17          1           0        3.010208    0.489380    3.188087
     18          1           0        3.800184    1.040738    1.730346
     19          1           0        2.350533    1.837416    2.293272
     20          6           0        1.316412   -1.088935    2.316013
     21          1           0        0.697061   -1.745242    1.741064
     22          1           0        2.063158   -1.659914    2.827142
     23          1           0        0.715502   -0.566567    3.030813
     24          6           0        2.896852   -0.823554    0.377960
     25          6           0        4.275209   -0.607697    0.381111
     26          6           0        2.333117   -1.717969   -0.531860
     27          6           0        5.089492   -1.285640   -0.525839
     28          1           0        4.719248    0.098084    1.098009
     29          6           0        3.147624   -2.396939   -1.438496
     30          1           0        1.246796   -1.888351   -0.534362
     31          6           0        4.525603   -2.180828   -1.435720
     32          1           0        6.175863   -1.115080   -0.523834
     33          1           0        2.702912   -3.102395   -2.155459
     34          1           0        5.167844   -2.715291   -2.150684
     35          6           0       -2.893856    0.978473    0.482927
     36          6           0       -3.739706    2.034944   -0.251923
     37          1           0       -3.624618    1.912010   -1.308589
     38          1           0       -4.769680    1.913252    0.011221
     39          1           0       -3.412522    3.013614    0.031020
     40          6           0       -3.139527    1.088205    1.999240
     41          1           0       -2.812875    0.189534    2.479437
     42          1           0       -2.592267    1.920541    2.389910
     43          1           0       -4.184133    1.230783    2.181915
     44          6           0       -3.294300   -0.427412   -0.001564
     45          6           0       -3.526530   -1.444539    0.924715
     46          6           0       -3.424941   -0.683911   -1.366368
     47          6           0       -3.888656   -2.718024    0.486171
     48          1           0       -3.422702   -1.242201    2.000597
     49          6           0       -3.788131   -1.957472   -1.805168
     50          1           0       -3.242119    0.117674   -2.096550
     51          6           0       -4.019859   -2.974529   -0.879189
     52          1           0       -4.071106   -3.519950    1.216187
     53          1           0       -3.891460   -2.159310   -2.881299
     54          1           0       -4.305450   -3.978689   -1.224726
 ---------------------------------------------------------------------
 Rotational constants (GHZ):           0.3095042           0.1394731           0.1214257
 Standard basis: 6-31G(d) (6D, 7F)
 There are   446 symmetry adapted cartesian basis functions of A   symmetry.
 There are   446 symmetry adapted basis functions of A   symmetry.
   446 basis functions,   840 primitive gaussians,   446 cartesian basis functions
    93 alpha electrons       93 beta electrons
       nuclear repulsion energy      2317.7208664112 Hartrees.
 NAtoms=   54 NActive=   54 NUniq=   54 SFac= 1.00D+00 NAtFMM=   60 NAOKFM=F Big=F
 Integral buffers will be    131072 words long.
 Raffenetti 2 integral format.
 Two-electron integral symmetry is turned on.
 ------------------------------------------------------------------------------
 Polarizable Continuum Model (PCM)
 =================================
 Model                : PCM.
 Atomic radii         : SMD-Coulomb.
 Polarization charges : Total charges.
 Charge compensation  : None.
 Solution method      : On-the-fly selection.
 Cavity type          : VdW (van der Waals Surface) (Alpha=1.000).
 Cavity algorithm     : GePol (No added spheres)
                        Default sphere list used, NSphG=   54.
                        Lebedev-Laikov grids with approx.  5.0 points / Ang**2.
                        Smoothing algorithm: York/Karplus (Gamma=1.0000).
                        Polarization charges: spherical gaussians, with
                                              point-specific exponents (IZeta= 3).
                        Self-potential: point-specific (ISelfS= 7).
                        Self-field    : sphere-specific E.n sum rule (ISelfD= 2).
 1st derivatives      : Analytical E(r).r(x)/FMM algorithm (CHGder, D1EAlg=3).
                        Cavity 1st derivative terms included.
 Solvent              : Toluene, Eps=   2.374100 Eps(inf)=   2.238315
 ------------------------------------------------------------------------------
 ------------------------------------------------------------------------------
 Atomic radii for non-electrostatic terms: SMD-CDS.
 ------------------------------------------------------------------------------
 Nuclear repulsion after PCM non-electrostatic terms =     2317.7064305867 Hartrees.
 One-electron integrals computed using PRISM.
 NBasis=   446 RedAO= T EigKep=  3.13D-04  NBF=   446
 NBsUse=   446 1.00D-06 EigRej= -1.00D+00 NBFU=   446
 ExpMin= 1.61D-01 ExpMax= 5.48D+03 ExpMxC= 8.25D+02 IAcc=3 IRadAn=         5 AccDes= 0.00D+00
 Harris functional with IExCor=  402 and IRadAn=       5 diagonalized for initial guess.
 HarFok:  IExCor=  402 AccDes= 0.00D+00 IRadAn=         5 IDoV= 1 UseB2=F ITyADJ=14
 ICtDFT=  3500011 ScaDFX=  1.000000  1.000000  1.000000  1.000000
 FoFCou: FMM=F IPFlag=           0 FMFlag=      100000 FMFlg1=           0
         NFxFlg=           0 DoJE=T BraDBF=F KetDBF=T FulRan=T
         wScrn=  0.000000 ICntrl=       500 IOpCl=  0 I1Cent=   200000004 NGrid=           0
         NMat0=    1 NMatS0=      1 NMatT0=    0 NMatD0=    1 NMtDS0=    0 NMtDT0=    0
 Petite list used in FoFCou.
 Requested convergence on RMS density matrix=1.00D-08 within 128 cycles.
 Requested convergence on MAX density matrix=1.00D-06.
 Requested convergence on             energy=1.00D-06.
 No special actions if energy rises.
 Inv3:  Mode=1 IEnd=    38923212.
 Iteration    1 A*A^-1 deviation from unit magnitude is 6.22D-15 for   3596.
 Iteration    1 A*A^-1 deviation from orthogonality  is 4.86D-15 for   3596   2913.
 Iteration    1 A^-1*A deviation from unit magnitude is 6.22D-15 for   3596.
 Iteration    1 A^-1*A deviation from orthogonality  is 1.67D-15 for   2711    751.
 Error on total polarization charges =  0.04011
 SCF Done:  E(RB3LYP) =  -1044.72816010     A.U. after   12 cycles
            NFock= 12  Conv=0.85D-08     -V/T= 2.0092
 SMD-CDS (non-electrostatic) energy       (kcal/mol) =      -9.06
 (included in total energy above)

 **********************************************************************

            Population analysis using the SCF Density.

 **********************************************************************

 Orbital symmetries:
       Occupied  (A) (A) (A) (A) (A) (A) (A) (A) (A) (A) (A) (A)
                 (A) (A) (A) (A) (A) (A) (A) (A) (A) (A) (A) (A)
                 (A) (A) (A) (A) (A) (A) (A) (A) (A) (A) (A) (A)
                 (A) (A) (A) (A) (A) (A) (A) (A) (A) (A) (A) (A)
                 (A) (A) (A) (A) (A) (A) (A) (A) (A) (A) (A) (A)
                 (A) (A) (A) (A) (A) (A) (A) (A) (A) (A) (A) (A)
                 (A) (A) (A) (A) (A) (A) (A) (A) (A) (A) (A) (A)
                 (A) (A) (A) (A) (A) (A) (A) (A) (A)
       Virtual   (A) (A) (A) (A) (A) (A) (A) (A) (A) (A) (A) (A)
                 (A) (A) (A) (A) (A) (A) (A) (A) (A) (A) (A) (A)
                 (A) (A) (A) (A) (A) (A) (A) (A) (A) (A) (A) (A)
                 (A) (A) (A) (A) (A) (A) (A) (A) (A) (A) (A) (A)
                 (A) (A) (A) (A) (A) (A) (A) (A) (A) (A) (A) (A)
                 (A) (A) (A) (A) (A) (A) (A) (A) (A) (A) (A) (A)
                 (A) (A) (A) (A) (A) (A) (A) (A) (A) (A) (A) (A)
                 (A) (A) (A) (A) (A) (A) (A) (A) (A) (A) (A) (A)
                 (A) (A) (A) (A) (A) (A) (A) (A) (A) (A) (A) (A)
                 (A) (A) (A) (A) (A) (A) (A) (A) (A) (A) (A) (A)
                 (A) (A) (A) (A) (A) (A) (A) (A) (A) (A) (A) (A)
                 (A) (A) (A) (A) (A) (A) (A) (A) (A) (A) (A) (A)
                 (A) (A) (A) (A) (A) (A) (A) (A) (A) (A) (A) (A)
                 (A) (A) (A) (A) (A) (A) (A) (A) (A) (A) (A) (A)
                 (A) (A) (A) (A) (A) (A) (A) (A) (A) (A) (A) (A)
                 (A) (A) (A) (A) (A) (A) (A) (A) (A) (A) (A) (A)
                 (A) (A) (A) (A) (A) (A) (A) (A) (A) (A) (A) (A)
                 (A) (A) (A) (A) (A) (A) (A) (A) (A) (A) (A) (A)
                 (A) (A) (A) (A) (A) (A) (A) (A) (A) (A) (A) (A)
                 (A) (A) (A) (A) (A) (A) (A) (A) (A) (A) (A) (A)
                 (A) (A) (A) (A) (A) (A) (A) (A) (A) (A) (A) (A)
                 (A) (A) (A) (A) (A) (A) (A) (A) (A) (A) (A) (A)
                 (A) (A) (A) (A) (A) (A) (A) (A) (A) (A) (A) (A)
                 (A) (A) (A) (A) (A) (A) (A) (A) (A) (A) (A) (A)
                 (A) (A) (A) (A) (A) (A) (A) (A) (A) (A) (A) (A)
                 (A) (A) (A) (A) (A) (A) (A) (A) (A) (A) (A) (A)
                 (A) (A) (A) (A) (A) (A) (A) (A) (A) (A) (A) (A)
                 (A) (A) (A) (A) (A) (A) (A) (A) (A) (A) (A) (A)
                 (A) (A) (A) (A) (A) (A) (A) (A) (A) (A) (A) (A)
                 (A) (A) (A) (A) (A)
 The electronic state is 1-A.
 Alpha  occ. eigenvalues --  -19.15550 -10.23084 -10.20245 -10.19522 -10.18807
 Alpha  occ. eigenvalues --  -10.18621 -10.18518 -10.18416 -10.18398 -10.18374
 Alpha  occ. eigenvalues --  -10.18355 -10.18340 -10.18177 -10.18153 -10.18026
 Alpha  occ. eigenvalues --  -10.18015 -10.17974 -10.17892 -10.17885 -10.17367
 Alpha  occ. eigenvalues --  -10.17347 -10.16769 -10.16420 -10.16283 -10.15944
 Alpha  occ. eigenvalues --  -10.15873  -1.02369  -0.86465  -0.85613  -0.84235
 Alpha  occ. eigenvalues --   -0.81403  -0.79995  -0.75301  -0.73937  -0.73815
 Alpha  occ. eigenvalues --   -0.72996  -0.72292  -0.71146  -0.69946  -0.69157
 Alpha  occ. eigenvalues --   -0.66966  -0.62697  -0.61894  -0.59523  -0.59281
 Alpha  occ. eigenvalues --   -0.58972  -0.57623  -0.54358  -0.53735  -0.52563
 Alpha  occ. eigenvalues --   -0.50967  -0.50293  -0.47954  -0.46896  -0.45160
 Alpha  occ. eigenvalues --   -0.44812  -0.44520  -0.44330  -0.43796  -0.43745
 Alpha  occ. eigenvalues --   -0.43351  -0.41860  -0.41734  -0.41659  -0.40844
 Alpha  occ. eigenvalues --   -0.40317  -0.39313  -0.38856  -0.38472  -0.38134
 Alpha  occ. eigenvalues --   -0.37689  -0.37109  -0.36597  -0.36316  -0.35912
 Alpha  occ. eigenvalues --   -0.35736  -0.35364  -0.35184  -0.34548  -0.34441
 Alpha  occ. eigenvalues --   -0.33284  -0.32566  -0.32025  -0.31639  -0.30677
 Alpha  occ. eigenvalues --   -0.30353  -0.29799  -0.24500  -0.24437  -0.23951
 Alpha  occ. eigenvalues --   -0.23631  -0.22703  -0.20694
 Alpha virt. eigenvalues --   -0.00187   0.00292   0.00335   0.00587   0.01756
 Alpha virt. eigenvalues --    0.02581   0.08916   0.09058   0.10342   0.11416
 Alpha virt. eigenvalues --    0.12437   0.13077   0.13596   0.13845   0.14431
 Alpha virt. eigenvalues --    0.14694   0.14921   0.15511   0.15932   0.16008
 Alpha virt. eigenvalues --    0.16306   0.16885   0.17361   0.17700   0.18013
 Alpha virt. eigenvalues --    0.18028   0.18687   0.19156   0.19209   0.19596
 Alpha virt. eigenvalues --    0.19766   0.20697   0.21291   0.21811   0.22397
 Alpha virt. eigenvalues --    0.22892   0.24128   0.24527   0.24831   0.25786
 Alpha virt. eigenvalues --    0.26479   0.27332   0.27620   0.28488   0.29928
 Alpha virt. eigenvalues --    0.30386   0.31168   0.31252   0.32829   0.34000
 Alpha virt. eigenvalues --    0.34565   0.35274   0.35749   0.35928   0.36647
 Alpha virt. eigenvalues --    0.37106   0.38551   0.40776   0.41980   0.47019
 Alpha virt. eigenvalues --    0.47587   0.48314   0.50139   0.50933   0.51713
 Alpha virt. eigenvalues --    0.52092   0.53202   0.53701   0.54021   0.54460
 Alpha virt. eigenvalues --    0.54756   0.54835   0.55511   0.55898   0.56826
 Alpha virt. eigenvalues --    0.57337   0.57555   0.58041   0.58518   0.58736
 Alpha virt. eigenvalues --    0.59244   0.59835   0.60197   0.60873   0.60959
 Alpha virt. eigenvalues --    0.61198   0.61265   0.61610   0.62009   0.62309
 Alpha virt. eigenvalues --    0.62676   0.63052   0.64211   0.64504   0.64540
 Alpha virt. eigenvalues --    0.64875   0.66454   0.66615   0.67008   0.68154
 Alpha virt. eigenvalues --    0.69607   0.70285   0.70447   0.71424   0.72431
 Alpha virt. eigenvalues --    0.73094   0.74111   0.75231   0.75553   0.77022
 Alpha virt. eigenvalues --    0.77494   0.78124   0.79080   0.79705   0.80889
 Alpha virt. eigenvalues --    0.81208   0.82289   0.82971   0.83809   0.84063
 Alpha virt. eigenvalues --    0.84266   0.84435   0.84838   0.85715   0.86059
 Alpha virt. eigenvalues --    0.86312   0.86984   0.87780   0.88340   0.88513
 Alpha virt. eigenvalues --    0.89415   0.90331   0.90476   0.91288   0.91526
 Alpha virt. eigenvalues --    0.92333   0.93032   0.93648   0.94434   0.94579
 Alpha virt. eigenvalues --    0.95288   0.95962   0.96220   0.96727   0.97342
 Alpha virt. eigenvalues --    0.98596   0.99247   0.99370   1.00096   1.00882
 Alpha virt. eigenvalues --    1.02100   1.03267   1.04325   1.04639   1.05571
 Alpha virt. eigenvalues --    1.05844   1.06151   1.06935   1.07836   1.08471
 Alpha virt. eigenvalues --    1.09895   1.12081   1.12767   1.13293   1.13570
 Alpha virt. eigenvalues --    1.15234   1.16796   1.18074   1.18795   1.19532
 Alpha virt. eigenvalues --    1.19868   1.20613   1.21877   1.22518   1.23456
 Alpha virt. eigenvalues --    1.27129   1.27367   1.28917   1.29961   1.31668
 Alpha virt. eigenvalues --    1.32209   1.33764   1.35971   1.37394   1.38700
 Alpha virt. eigenvalues --    1.39935   1.40530   1.41458   1.42886   1.43925
 Alpha virt. eigenvalues --    1.44563   1.44943   1.45779   1.46547   1.47106
 Alpha virt. eigenvalues --    1.48211   1.48596   1.49716   1.50569   1.51260
 Alpha virt. eigenvalues --    1.51921   1.52107   1.52284   1.53838   1.55900
 Alpha virt. eigenvalues --    1.60714   1.63688   1.64443   1.67124   1.68810
 Alpha virt. eigenvalues --    1.69755   1.71997   1.75650   1.77475   1.77892
 Alpha virt. eigenvalues --    1.78910   1.79779   1.80687   1.81426   1.82043
 Alpha virt. eigenvalues --    1.84217   1.84494   1.85340   1.87035   1.88228
 Alpha virt. eigenvalues --    1.88883   1.89350   1.90073   1.90875   1.91010
 Alpha virt. eigenvalues --    1.91256   1.92470   1.93520   1.94612   1.95241
 Alpha virt. eigenvalues --    1.96648   1.97038   1.97714   1.98873   1.99817
 Alpha virt. eigenvalues --    2.00889   2.03610   2.05031   2.06073   2.06794
 Alpha virt. eigenvalues --    2.07321   2.08356   2.08592   2.11058   2.12653
 Alpha virt. eigenvalues --    2.14371   2.14470   2.15325   2.15587   2.16270
 Alpha virt. eigenvalues --    2.17026   2.17161   2.17389   2.18311   2.18983
 Alpha virt. eigenvalues --    2.20141   2.20408   2.21210   2.22118   2.25496
 Alpha virt. eigenvalues --    2.26623   2.29130   2.29781   2.30348   2.30733
 Alpha virt. eigenvalues --    2.31276   2.31640   2.32103   2.32188   2.32584
 Alpha virt. eigenvalues --    2.32957   2.34577   2.34745   2.35696   2.35976
 Alpha virt. eigenvalues --    2.38187   2.39959   2.40799   2.41312   2.42928
 Alpha virt. eigenvalues --    2.44472   2.45535   2.46146   2.49692   2.53860
 Alpha virt. eigenvalues --    2.54509   2.55137   2.57672   2.59710   2.60381
 Alpha virt. eigenvalues --    2.60895   2.61645   2.63388   2.65682   2.66509
 Alpha virt. eigenvalues --    2.68743   2.69832   2.70688   2.73239   2.73746
 Alpha virt. eigenvalues --    2.74304   2.74774   2.77327   2.77545   2.78309
 Alpha virt. eigenvalues --    2.79557   2.80934   2.83295   2.83496   2.87959
 Alpha virt. eigenvalues --    2.88992   2.91024   2.94565   2.97488   2.98466
 Alpha virt. eigenvalues --    3.07080   3.10072   3.11307   3.21296   3.41803
 Alpha virt. eigenvalues --    3.41908   3.44968   4.06624   4.09792   4.09894
 Alpha virt. eigenvalues --    4.12869   4.13082   4.15191   4.17086   4.19082
 Alpha virt. eigenvalues --    4.20273   4.22472   4.25978   4.26957   4.31979
 Alpha virt. eigenvalues --    4.34518   4.34670   4.35570   4.37141   4.40704
 Alpha virt. eigenvalues --    4.45373   4.48019   4.52790   4.66476   4.70705
 Alpha virt. eigenvalues --    4.76567   4.78973   4.86420
          Condensed to atoms (all electrons):
 Mulliken charges:
               1
     1  C   -0.277486
     2  C    0.134101
     3  C    0.217860
     4  C    0.109119
     5  C   -0.273682
     6  C    0.176463
     7  H    0.142425
     8  H    0.135112
     9  C   -0.517713
    10  H    0.168851
    11  H    0.178007
    12  H    0.156447
    13  O   -0.688493
    14  H    0.428649
    15  C   -0.077286
    16  C   -0.508802
    17  H    0.171118
    18  H    0.145378
    19  H    0.172353
    20  C   -0.475072
    21  H    0.167882
    22  H    0.155931
    23  H    0.158973
    24  C    0.191058
    25  C   -0.237634
    26  C   -0.188304
    27  C   -0.152567
    28  H    0.161480
    29  C   -0.147414
    30  H    0.151452
    31  C   -0.140192
    32  H    0.138703
    33  H    0.141523
    34  H    0.137220
    35  C   -0.091048
    36  C   -0.473237
    37  H    0.160513
    38  H    0.153085
    39  H    0.155992
    40  C   -0.466521
    41  H    0.158585
    42  H    0.152582
    43  H    0.153820
    44  C    0.188631
    45  C   -0.207292
    46  C   -0.192276
    47  C   -0.155942
    48  H    0.140448
    49  C   -0.149659
    50  H    0.144733
    51  C   -0.142302
    52  H    0.138092
    53  H    0.139664
    54  H    0.136670
 Sum of Mulliken charges =  -0.00000
 Mulliken charges with hydrogens summed into heavy atoms:
               1
     1  C   -0.135061
     2  C    0.134101
     3  C    0.217860
     4  C    0.109119
     5  C   -0.138570
     6  C    0.176463
     9  C   -0.014408
    13  O   -0.259844
    15  C   -0.077286
    16  C   -0.019953
    20  C    0.007714
    24  C    0.191058
    25  C   -0.076153
    26  C   -0.036852
    27  C   -0.013864
    29  C   -0.005891
    31  C   -0.002972
    35  C   -0.091048
    36  C   -0.003647
    40  C   -0.001533
    44  C    0.188631
    45  C   -0.066843
    46  C   -0.047543
    47  C   -0.017850
    49  C   -0.009995
    51  C   -0.005632
 Electronic spatial extent (au):  <R**2>=           9714.7786
 Charge=             -0.0000 electrons
 Dipole moment (field-independent basis, Debye):
    X=             -0.0293    Y=             -0.2144    Z=              1.6607  Tot=              1.6747
 Quadrupole moment (field-independent basis, Debye-Ang):
   XX=           -149.3215   YY=           -150.9729   ZZ=           -147.1187
   XY=             -0.1952   XZ=              5.0862   YZ=              2.6253
 Traceless Quadrupole moment (field-independent basis, Debye-Ang):
   XX=             -0.1838   YY=             -1.8352   ZZ=              2.0190
   XY=             -0.1952   XZ=              5.0862   YZ=              2.6253
 Octapole moment (field-independent basis, Debye-Ang**2):
  XXX=             88.5345  YYY=             -1.8804  ZZZ=             -4.7706  XYY=            -19.6612
  XXY=              4.0920  XXZ=             10.3364  XZZ=             -6.0648  YZZ=             -8.4123
  YYZ=            -14.7019  XYZ=             20.7756
 Hexadecapole moment (field-independent basis, Debye-Ang**3):
 XXXX=          -8339.5252 YYYY=          -3075.2968 ZZZZ=          -1710.6577 XXXY=             -8.6717
 XXXZ=            -18.1596 YYYX=            100.3631 YYYZ=             22.0093 ZZZX=             30.0679
 ZZZY=              3.0436 XXYY=          -1891.2909 XXZZ=          -1640.2263 YYZZ=           -772.9958
 XXYZ=             83.6941 YYXZ=            -14.8566 ZZXY=              4.5655
 N-N= 2.317706430587D+03 E-N=-7.056964236416D+03  KE= 1.035224098835D+03
 D1PCM: PCM CHGder 1st derivatives, ID1Alg=3 FixD1E=F DoIter=F DoCFld=F I1PDM=0.
 Calling FoFJK, ICntrl=      2127 FMM=F ISym2X=0 I1Cent= 0 IOpClX= 0 NMat=1 NMatS=1 NMatT=0.
 ***** Axes restored to original set *****
 -------------------------------------------------------------------
 Center     Atomic                   Forces (Hartrees/Bohr)
 Number     Number              X              Y              Z
 -------------------------------------------------------------------
      1        6           0.000059293    0.002395411    0.000176817
      2        6          -0.000393987   -0.018957505   -0.002689964
      3        6           0.024327392   -0.002876317    0.005094890
      4        6           0.018739839    0.023744416   -0.002554757
      5        6           0.001982641   -0.003150819   -0.001708572
      6        6          -0.015048987    0.003896494   -0.000765851
      7        1           0.004733462    0.013934917   -0.000912320
      8        1           0.011536665   -0.008761778   -0.000178834
      9        6          -0.016098935   -0.032074117   -0.003065123
     10        1           0.005820406    0.007859004    0.016449963
     11        1           0.015001263    0.001329629   -0.006229358
     12        1          -0.008172999    0.013739619   -0.006298442
     13        8          -0.034664576    0.022809096   -0.002953536
     14        1          -0.000728717   -0.004028074    0.001414050
     15        6          -0.002336099    0.004483365   -0.004705627
     16        6          -0.016651101    0.004515288   -0.005884614
     17        1           0.003957966   -0.014847953    0.009587567
     18        1           0.007030888    0.001882085    0.016933598
     19        1          -0.004639634    0.007069781    0.015954918
     20        6           0.016670555    0.012548419   -0.001044466
     21        1          -0.010260151   -0.004041353   -0.012766705
     22        1           0.007352535   -0.015878185   -0.000686598
     23        1          -0.010535912   -0.003947667    0.013325042
     24        6          -0.004691818   -0.003013660    0.009046243
     25        6           0.009826665   -0.004476897   -0.007412997
     26        6          -0.004799305   -0.000475350   -0.007459302
     27        6           0.008869283   -0.001706649   -0.001142659
     28        1           0.004599021   -0.003350491   -0.021877198
     29        6          -0.004958879    0.000818080   -0.007291640
     30        1           0.008797356   -0.000281366    0.001138247
     31        6           0.008552123   -0.000560948   -0.007600099
     32        1          -0.007922148    0.001175732   -0.001103291
     33        1           0.002912582   -0.000774485    0.007714620
     34        1          -0.005075828    0.000382529    0.006476829
     35        6           0.001847944    0.000143151   -0.000755221
     36        6           0.002669813   -0.021171414   -0.002666504
     37        1          -0.000147686    0.013853016   -0.007968976
     38        1          -0.017538566    0.002220749    0.000491800
     39        1           0.003529013    0.008746013    0.014849161
     40        6           0.010857773    0.014670844   -0.009524774
     41        1           0.003675834   -0.012490809    0.009342457
     42        1           0.006693726    0.001892728    0.016045828
     43        1          -0.017978581   -0.000253210    0.004515272
     44        6           0.002549201    0.003012257    0.013495561
     45        6          -0.003777053   -0.008331597   -0.003268252
     46        6           0.000901708    0.005023077   -0.008007744
     47        6          -0.003543811   -0.007779812   -0.002994099
     48        1          -0.003148533    0.003982455   -0.016776035
     49        6           0.001852154    0.006688528   -0.006227398
     50        1          -0.003053164   -0.009480296   -0.002630810
     51        6          -0.004450446   -0.005763444   -0.009183112
     52        1           0.003162123    0.007351217    0.000433907
     53        1          -0.000542533   -0.004614237    0.006692481
     54        1           0.002650226    0.002920533    0.007155624
 -------------------------------------------------------------------
 Cartesian Forces:  Max     0.034664576 RMS     0.009528052

 GradGradGradGradGradGradGradGradGradGradGradGradGradGradGradGradGradGrad
 Berny optimization.
 FormGI is forming the generalized inverse of G from B-inverse, IUseBI=4.
 Internal  Forces:  Max     0.060423824 RMS     0.010340143
 Search for a local minimum.
 Step number   1 out of a maximum of  303
 All quantities printed in internal units (Hartrees-Bohrs-Radians)
 Mixed Optimization -- RFO/linear search
 Second derivative matrix not updated -- first step.
 ITU=  0
     Eigenvalues ---    0.00237   0.00237   0.00237   0.00237   0.00237
     Eigenvalues ---    0.00237   0.00237   0.00237   0.00237   0.01295
     Eigenvalues ---    0.01333   0.01388   0.01388   0.01416   0.01417
     Eigenvalues ---    0.02002   0.02152   0.02152   0.02153   0.02153
     Eigenvalues ---    0.02153   0.02154   0.02154   0.02154   0.02155
     Eigenvalues ---    0.02155   0.02155   0.02155   0.02155   0.02155
     Eigenvalues ---    0.02155   0.02156   0.02156   0.02156   0.02156
     Eigenvalues ---    0.02157   0.02157   0.05069   0.05069   0.05418
     Eigenvalues ---    0.05418   0.05720   0.05720   0.05720   0.05720
     Eigenvalues ---    0.05720   0.05720   0.05720   0.05720   0.05897
     Eigenvalues ---    0.05897   0.07243   0.07243   0.15476   0.15476
     Eigenvalues ---    0.15760   0.15760   0.16000   0.16000   0.16000
     Eigenvalues ---    0.16000   0.16000   0.16000   0.16000   0.16000
     Eigenvalues ---    0.16000   0.16000   0.16000   0.16000   0.16000
     Eigenvalues ---    0.16000   0.16000   0.16000   0.16000   0.16000
     Eigenvalues ---    0.16000   0.16000   0.16000   0.16000   0.16000
     Eigenvalues ---    0.16000   0.16000   0.16000   0.16000   0.16000
     Eigenvalues ---    0.22000   0.22000   0.22000   0.22000   0.23479
     Eigenvalues ---    0.23486   0.23486   0.23493   0.25000   0.25000
     Eigenvalues ---    0.25000   0.25000   0.25000   0.25000   0.25000
     Eigenvalues ---    0.28519   0.28519   0.28519   0.28519   0.28519
     Eigenvalues ---    0.28519   0.28519   0.28519   0.28519   0.33709
     Eigenvalues ---    0.33709   0.33709   0.33718   0.33718   0.33718
     Eigenvalues ---    0.33718   0.33720   0.33720   0.33725   0.33726
     Eigenvalues ---    0.33726   0.37230   0.37230   0.37230   0.37230
     Eigenvalues ---    0.37230   0.37230   0.37230   0.37230   0.37230
     Eigenvalues ---    0.37230   0.37230   0.37230   0.37230   0.37230
     Eigenvalues ---    0.37230   0.40989   0.42121   0.42121   0.42300
     Eigenvalues ---    0.42300   0.42403   0.42564   0.46412   0.46412
     Eigenvalues ---    0.46412   0.46453   0.46453   0.46453   0.46466
     Eigenvalues ---    0.46466   0.46466   0.46497   0.46497   0.46497
     Eigenvalues ---    0.55473
 RFO step:  Lambda=-9.72231797D-02 EMin= 2.36824098D-03
 Linear search not attempted -- first point.
 Maximum step size (   0.300) exceeded in Quadratic search.
    -- Step size scaled by   0.604
 Iteration  1 RMS(Cart)=  0.15136318 RMS(Int)=  0.00420673
 Iteration  2 RMS(Cart)=  0.01054155 RMS(Int)=  0.00022540
 Iteration  3 RMS(Cart)=  0.00004818 RMS(Int)=  0.00022494
 Iteration  4 RMS(Cart)=  0.00000003 RMS(Int)=  0.00022494
 Variable       Old X    -DE/DX   Delta X   Delta X   Delta X     New X
                                 (Linear)    (Quad)   (Total)
    R1        2.63647   0.00891   0.00000   0.00996   0.01001   2.64648
    R2        2.63584   0.00785   0.00000   0.00834   0.00837   2.64421
    R3        2.07796  -0.01444   0.00000  -0.02007  -0.02007   2.05789
    R4        2.63562   0.02031   0.00000   0.02230   0.02232   2.65794
    R5        2.91018   0.02109   0.00000   0.03331   0.03331   2.94349
    R6        2.63697  -0.00160   0.00000  -0.00162  -0.00165   2.63533
    R7        2.70231  -0.03539   0.00000  -0.04215  -0.04215   2.66015
    R8        2.63584   0.00162   0.00000   0.00136   0.00131   2.63715
    R9        2.91018  -0.00964   0.00000  -0.01523  -0.01523   2.89495
   R10        2.63643   0.00466   0.00000   0.00453   0.00451   2.64094
   R11        2.07825  -0.01336   0.00000  -0.01858  -0.01858   2.05967
   R12        2.91018   0.01379   0.00000   0.02179   0.02179   2.93196
   R13        2.02201   0.01877   0.00000   0.02414   0.02414   2.04615
   R14        2.02201   0.01586   0.00000   0.02041   0.02041   2.04241
   R15        2.02201   0.01699   0.00000   0.02186   0.02186   2.04387
   R16        1.81414   0.00370   0.00000   0.00343   0.00343   1.81757
   R17        2.91018   0.02544   0.00000   0.04019   0.04019   2.95037
   R18        2.91018   0.00656   0.00000   0.01036   0.01036   2.92054
   R19        2.91018   0.03354   0.00000   0.05298   0.05298   2.96316
   R20        2.02201   0.01690   0.00000   0.02174   0.02174   2.04375
   R21        2.02201   0.00377   0.00000   0.00485   0.00485   2.02686
   R22        2.02201   0.01691   0.00000   0.02175   0.02175   2.04375
   R23        2.02201   0.01588   0.00000   0.02042   0.02042   2.04243
   R24        2.02201   0.01744   0.00000   0.02243   0.02243   2.04444
   R25        2.02201   0.01692   0.00000   0.02177   0.02177   2.04377
   R26        2.63647   0.01898   0.00000   0.02108   0.02113   2.65760
   R27        2.63584   0.00969   0.00000   0.01082   0.01089   2.64673
   R28        2.63562   0.00416   0.00000   0.00472   0.00471   2.64033
   R29        2.07805  -0.01819   0.00000  -0.02529  -0.02529   2.05276
   R30        2.63643  -0.00035   0.00000  -0.00063  -0.00062   2.63581
   R31        2.07795  -0.00882   0.00000  -0.01226  -0.01226   2.06569
   R32        2.63697  -0.00527   0.00000  -0.00608  -0.00615   2.63082
   R33        2.07809  -0.00809   0.00000  -0.01124  -0.01124   2.06685
   R34        2.63584  -0.00378   0.00000  -0.00472  -0.00478   2.63106
   R35        2.07825  -0.00828   0.00000  -0.01151  -0.01151   2.06673
   R36        2.07809  -0.00824   0.00000  -0.01145  -0.01145   2.06664
   R37        2.91018   0.00789   0.00000   0.01246   0.01246   2.92264
   R38        2.91018   0.01170   0.00000   0.01848   0.01848   2.92866
   R39        2.91018   0.02357   0.00000   0.03722   0.03722   2.94740
   R40        2.02201   0.01404   0.00000   0.01806   0.01806   2.04007
   R41        2.02201   0.01751   0.00000   0.02253   0.02253   2.04453
   R42        2.02201   0.01714   0.00000   0.02205   0.02205   2.04406
   R43        2.02201   0.00968   0.00000   0.01245   0.01245   2.03446
   R44        2.02201   0.01716   0.00000   0.02207   0.02207   2.04408
   R45        2.02201   0.01803   0.00000   0.02319   0.02319   2.04520
   R46        2.63647   0.01421   0.00000   0.01579   0.01583   2.65230
   R47        2.63584   0.01082   0.00000   0.01200   0.01204   2.64789
   R48        2.63562   0.00413   0.00000   0.00458   0.00458   2.64020
   R49        2.07805  -0.01580   0.00000  -0.02197  -0.02197   2.05608
   R50        2.63643   0.00018   0.00000   0.00006   0.00006   2.63649
   R51        2.07795  -0.01004   0.00000  -0.01396  -0.01396   2.06399
   R52        2.63697  -0.00398   0.00000  -0.00465  -0.00470   2.63227
   R53        2.07809  -0.00801   0.00000  -0.01114  -0.01114   2.06695
   R54        2.63584  -0.00215   0.00000  -0.00282  -0.00286   2.63297
   R55        2.07825  -0.00815   0.00000  -0.01133  -0.01133   2.06692
   R56        2.07809  -0.00817   0.00000  -0.01136  -0.01136   2.06673
    A1        2.09437   0.01625   0.00000   0.03075   0.03083   2.12520
    A2        2.09435  -0.00515   0.00000  -0.00838  -0.00842   2.08593
    A3        2.09447  -0.01110   0.00000  -0.02237  -0.02241   2.07206
    A4        2.09455  -0.01924   0.00000  -0.03269  -0.03262   2.06192
    A5        2.09406   0.00547   0.00000   0.00913   0.00909   2.10315
    A6        2.09458   0.01377   0.00000   0.02357   0.02353   2.11811
    A7        2.09429   0.00906   0.00000   0.01608   0.01607   2.11036
    A8        2.09462   0.01910   0.00000   0.03306   0.03306   2.12767
    A9        2.09427  -0.02815   0.00000  -0.04914  -0.04913   2.04514
   A10        2.09429  -0.00226   0.00000  -0.00501  -0.00509   2.08920
   A11        2.09407  -0.00028   0.00000   0.00006   0.00010   2.09417
   A12        2.09483   0.00253   0.00000   0.00495   0.00499   2.09982
   A13        2.09448   0.00795   0.00000   0.01291   0.01284   2.10732
   A14        2.09459  -0.00980   0.00000  -0.02014  -0.02010   2.07449
   A15        2.09411   0.00185   0.00000   0.00723   0.00726   2.10138
   A16        2.09440  -0.01176   0.00000  -0.02204  -0.02204   2.07236
   A17        2.09453  -0.00937   0.00000  -0.01550  -0.01551   2.07903
   A18        2.09426   0.02113   0.00000   0.03754   0.03754   2.13179
   A19        1.91063   0.00371   0.00000   0.00835   0.00833   1.91896
   A20        1.91063   0.00400   0.00000   0.00958   0.00955   1.92018
   A21        1.91063   0.00191   0.00000   0.00466   0.00463   1.91526
   A22        1.91063  -0.00424   0.00000  -0.01032  -0.01035   1.90028
   A23        1.91063  -0.00318   0.00000  -0.00783  -0.00784   1.90279
   A24        1.91063  -0.00220   0.00000  -0.00445  -0.00448   1.90615
   A25        1.91114  -0.00378   0.00000  -0.00888  -0.00888   1.90226
   A26        1.91063  -0.01124   0.00000  -0.02193  -0.02232   1.88831
   A27        1.91063   0.01720   0.00000   0.02623   0.02527   1.93590
   A28        1.91063  -0.00795   0.00000  -0.01503  -0.01537   1.89527
   A29        1.91063  -0.01511   0.00000  -0.03909  -0.03798   1.87265
   A30        1.91063   0.03640   0.00000   0.10167   0.10150   2.01214
   A31        1.91063  -0.01929   0.00000  -0.05185  -0.05084   1.85980
   A32        1.91063   0.00345   0.00000   0.00734   0.00707   1.91770
   A33        1.91063   0.02401   0.00000   0.05842   0.05797   1.96860
   A34        1.91063   0.00160   0.00000   0.00247   0.00230   1.91293
   A35        1.91063  -0.01168   0.00000  -0.02485  -0.02538   1.88525
   A36        1.91063  -0.00580   0.00000  -0.01773  -0.01769   1.89294
   A37        1.91063  -0.01158   0.00000  -0.02565  -0.02599   1.88464
   A38        1.91063   0.00714   0.00000   0.01757   0.01749   1.92812
   A39        1.91063  -0.00037   0.00000  -0.00212  -0.00210   1.90853
   A40        1.91063   0.00407   0.00000   0.00998   0.00990   1.92054
   A41        1.91063  -0.00406   0.00000  -0.01040  -0.01039   1.90025
   A42        1.91063  -0.00362   0.00000  -0.00601  -0.00617   1.90446
   A43        1.91063  -0.00315   0.00000  -0.00903  -0.00901   1.90162
   A44        2.09435   0.06042   0.00000   0.10451   0.10440   2.19875
   A45        2.09447  -0.03683   0.00000  -0.06466  -0.06475   2.02972
   A46        2.09437  -0.02359   0.00000  -0.03985  -0.03974   2.05463
   A47        2.09455   0.00736   0.00000   0.01503   0.01506   2.10961
   A48        2.09406   0.00960   0.00000   0.02368   0.02364   2.11770
   A49        2.09458  -0.01696   0.00000  -0.03869  -0.03873   2.05585
   A50        2.09440   0.01352   0.00000   0.02541   0.02549   2.11988
   A51        2.09453  -0.00662   0.00000  -0.01238  -0.01242   2.08211
   A52        2.09426  -0.00690   0.00000  -0.01303  -0.01307   2.08118
   A53        2.09429   0.00471   0.00000   0.00806   0.00798   2.10227
   A54        2.09462  -0.00235   0.00000  -0.00402  -0.00398   2.09064
   A55        2.09427  -0.00236   0.00000  -0.00404  -0.00400   2.09028
   A56        2.09448   0.00224   0.00000   0.00198   0.00194   2.09642
   A57        2.09411  -0.00127   0.00000  -0.00134  -0.00132   2.09280
   A58        2.09459  -0.00097   0.00000  -0.00065  -0.00062   2.09397
   A59        2.09429  -0.00424   0.00000  -0.01063  -0.01076   2.08353
   A60        2.09407   0.00215   0.00000   0.00539   0.00545   2.09951
   A61        2.09483   0.00209   0.00000   0.00524   0.00530   2.10013
   A62        1.91063   0.01658   0.00000   0.03558   0.03524   1.94587
   A63        1.91063  -0.00694   0.00000  -0.01703  -0.01669   1.89394
   A64        1.91063  -0.00920   0.00000  -0.01937  -0.01919   1.89144
   A65        1.91063  -0.01487   0.00000  -0.03734  -0.03701   1.87362
   A66        1.91063  -0.00710   0.00000  -0.01714  -0.01659   1.89404
   A67        1.91063   0.02154   0.00000   0.05529   0.05519   1.96582
   A68        1.91063   0.01013   0.00000   0.02465   0.02455   1.93518
   A69        1.91063   0.00032   0.00000  -0.00025  -0.00026   1.91038
   A70        1.91063   0.00312   0.00000   0.00748   0.00739   1.91802
   A71        1.91063  -0.00547   0.00000  -0.01316  -0.01318   1.89745
   A72        1.91063  -0.00502   0.00000  -0.00977  -0.00995   1.90069
   A73        1.91063  -0.00309   0.00000  -0.00896  -0.00895   1.90169
   A74        1.91063   0.01392   0.00000   0.03359   0.03342   1.94405
   A75        1.91063   0.00023   0.00000  -0.00115  -0.00115   1.90948
   A76        1.91063   0.00302   0.00000   0.00787   0.00771   1.91835
   A77        1.91063  -0.00833   0.00000  -0.02114  -0.02115   1.88949
   A78        1.91063  -0.00576   0.00000  -0.01013  -0.01044   1.90019
   A79        1.91063  -0.00308   0.00000  -0.00905  -0.00903   1.90160
   A80        2.09435   0.03377   0.00000   0.05826   0.05821   2.15256
   A81        2.09447  -0.01411   0.00000  -0.02504  -0.02508   2.06939
   A82        2.09437  -0.01965   0.00000  -0.03322  -0.03313   2.06124
   A83        2.09455   0.00697   0.00000   0.01392   0.01395   2.10850
   A84        2.09406   0.00431   0.00000   0.01134   0.01132   2.10538
   A85        2.09458  -0.01127   0.00000  -0.02525  -0.02527   2.06931
   A86        2.09440   0.01048   0.00000   0.01984   0.01988   2.11428
   A87        2.09453  -0.00335   0.00000  -0.00548  -0.00551   2.08903
   A88        2.09426  -0.00713   0.00000  -0.01435  -0.01438   2.07987
   A89        2.09429   0.00363   0.00000   0.00597   0.00592   2.10022
   A90        2.09462  -0.00177   0.00000  -0.00288  -0.00286   2.09176
   A91        2.09427  -0.00186   0.00000  -0.00309  -0.00306   2.09121
   A92        2.09448   0.00219   0.00000   0.00247   0.00243   2.09691
   A93        2.09411  -0.00113   0.00000  -0.00132  -0.00130   2.09282
   A94        2.09459  -0.00106   0.00000  -0.00115  -0.00114   2.09346
   A95        2.09429  -0.00361   0.00000  -0.00898  -0.00906   2.08523
   A96        2.09407   0.00188   0.00000   0.00466   0.00470   2.09877
   A97        2.09483   0.00173   0.00000   0.00432   0.00436   2.09919
    D1        0.00056   0.00046   0.00000   0.00235   0.00235   0.00292
    D2        3.14078   0.00040   0.00000   0.00193   0.00197  -3.14044
    D3       -3.14112  -0.00014   0.00000  -0.00069  -0.00072   3.14135
    D4       -0.00091  -0.00021   0.00000  -0.00111  -0.00110  -0.00201
    D5        0.00026   0.00033   0.00000   0.00181   0.00175   0.00201
    D6        3.14140  -0.00026   0.00000  -0.00141  -0.00137   3.14003
    D7       -3.14124   0.00093   0.00000   0.00485   0.00480  -3.13644
    D8       -0.00010   0.00035   0.00000   0.00163   0.00167   0.00157
    D9       -0.00099  -0.00087   0.00000  -0.00454  -0.00455  -0.00554
   D10        3.14093   0.00015   0.00000   0.00075   0.00089  -3.14136
   D11       -3.14120  -0.00080   0.00000  -0.00411  -0.00415   3.13783
   D12        0.00072   0.00022   0.00000   0.00118   0.00129   0.00201
   D13       -2.03628   0.01562   0.00000   0.04732   0.04696  -1.98932
   D14        0.05812   0.00076   0.00000   0.00208   0.00207   0.06019
   D15        2.15251  -0.01720   0.00000  -0.05456  -0.05423   2.09829
   D16        1.10393   0.01553   0.00000   0.04686   0.04652   1.15045
   D17       -3.08486   0.00067   0.00000   0.00162   0.00163  -3.08322
   D18       -0.99046  -0.01730   0.00000  -0.05502  -0.05467  -1.04513
   D19        0.00060   0.00049   0.00000   0.00256   0.00260   0.00320
   D20       -3.14153   0.00018   0.00000   0.00090   0.00093  -3.14060
   D21       -3.14132  -0.00053   0.00000  -0.00270  -0.00258   3.13929
   D22       -0.00026  -0.00084   0.00000  -0.00437  -0.00424  -0.00451
   D23       -0.53360   0.00020   0.00000   0.00127   0.00129  -0.53231
   D24        2.60832   0.00122   0.00000   0.00654   0.00652   2.61484
   D25        0.00023   0.00033   0.00000   0.00163   0.00170   0.00193
   D26       -3.14158  -0.00004   0.00000  -0.00026  -0.00022   3.14138
   D27       -3.14083   0.00064   0.00000   0.00329   0.00337  -3.13746
   D28        0.00054   0.00026   0.00000   0.00140   0.00146   0.00200
   D29       -1.54637   0.00041   0.00000   0.00238   0.00238  -1.54399
   D30        0.54803  -0.00005   0.00000   0.00072   0.00073   0.54876
   D31        2.64242   0.00086   0.00000   0.00400   0.00401   2.64643
   D32        1.59469   0.00010   0.00000   0.00071   0.00070   1.59539
   D33       -2.59410  -0.00036   0.00000  -0.00094  -0.00095  -2.59505
   D34       -0.49971   0.00056   0.00000   0.00233   0.00233  -0.49738
   D35       -0.00066  -0.00073   0.00000  -0.00381  -0.00382  -0.00448
   D36        3.14138  -0.00014   0.00000  -0.00057  -0.00058   3.14081
   D37        3.14116  -0.00036   0.00000  -0.00191  -0.00187   3.13929
   D38        0.00001   0.00024   0.00000   0.00132   0.00137   0.00139
   D39        2.99204  -0.00207   0.00000  -0.00406  -0.00413   2.98791
   D40        0.89764   0.01025   0.00000   0.03030   0.03037   0.92801
   D41       -1.19676  -0.00625   0.00000  -0.01512  -0.01510  -1.21186
   D42       -0.15001  -0.00267   0.00000  -0.00730  -0.00738  -0.15739
   D43       -2.24440   0.00965   0.00000   0.02706   0.02711  -2.21729
   D44        1.94439  -0.00685   0.00000  -0.01836  -0.01836   1.92603
   D45        2.37685  -0.00028   0.00000  -0.00742  -0.00748   2.36937
   D46       -1.81194   0.00223   0.00000   0.00242   0.00255  -1.80939
   D47        0.28246   0.00373   0.00000   0.00829   0.00847   0.29093
   D48        0.28246  -0.00521   0.00000  -0.00217  -0.00283   0.27963
   D49        2.37685  -0.00270   0.00000   0.00766   0.00720   2.38406
   D50       -1.81194  -0.00119   0.00000   0.01353   0.01312  -1.79881
   D51       -1.81194   0.00538   0.00000   0.02300   0.02328  -1.78866
   D52        0.28246   0.00790   0.00000   0.03284   0.03331   0.31577
   D53        2.37685   0.00940   0.00000   0.03871   0.03923   2.41608
   D54        1.01692   0.00149   0.00000   0.00392   0.00399   1.02091
   D55        3.11131   0.00065   0.00000   0.00065   0.00068   3.11200
   D56       -1.07748  -0.00094   0.00000  -0.00559  -0.00561  -1.08308
   D57        3.11131  -0.01100   0.00000  -0.03081  -0.03134   3.07997
   D58       -1.07748  -0.01184   0.00000  -0.03408  -0.03466  -1.11213
   D59        1.01692  -0.01343   0.00000  -0.04032  -0.04095   0.97597
   D60       -1.07748   0.01251   0.00000   0.03802   0.03862  -1.03886
   D61        1.01692   0.01167   0.00000   0.03475   0.03530   1.05222
   D62        3.11131   0.01008   0.00000   0.02851   0.02902   3.14033
   D63        2.14618   0.00544   0.00000   0.04532   0.04546   2.19165
   D64       -0.99550   0.00279   0.00000   0.03093   0.03080  -0.96470
   D65        0.05179   0.00179   0.00000   0.01912   0.01845   0.07024
   D66       -3.08990  -0.00086   0.00000   0.00473   0.00379  -3.08611
   D67       -2.04261   0.00982   0.00000   0.03648   0.03741  -2.00519
   D68        1.09889   0.00718   0.00000   0.02209   0.02275   1.12165
   D69       -3.14112  -0.00138   0.00000  -0.00749  -0.00806   3.13400
   D70       -0.00091   0.00048   0.00000   0.00195   0.00166   0.00075
   D71        0.00056   0.00127   0.00000   0.00690   0.00679   0.00735
   D72        3.14078   0.00313   0.00000   0.01634   0.01651  -3.12590
   D73       -3.14124   0.00109   0.00000   0.00606   0.00530  -3.13594
   D74       -0.00010   0.00199   0.00000   0.01066   0.01002   0.00992
   D75        0.00026  -0.00155   0.00000  -0.00832  -0.00809  -0.00783
   D76        3.14140  -0.00066   0.00000  -0.00372  -0.00338   3.13803
   D77       -0.00099  -0.00017   0.00000  -0.00101  -0.00117  -0.00217
   D78        3.14093   0.00017   0.00000   0.00075   0.00070  -3.14156
   D79       -3.14120  -0.00205   0.00000  -0.01050  -0.01061   3.13137
   D80        0.00072  -0.00171   0.00000  -0.00874  -0.00874  -0.00802
   D81       -0.00066   0.00072   0.00000   0.00385   0.00375   0.00309
   D82        3.14116   0.00068   0.00000   0.00360   0.00362  -3.13841
   D83        3.14138  -0.00017   0.00000  -0.00076  -0.00097   3.14041
   D84        0.00001  -0.00021   0.00000  -0.00101  -0.00110  -0.00109
   D85        0.00060  -0.00067   0.00000  -0.00348  -0.00339  -0.00279
   D86       -3.14153  -0.00011   0.00000  -0.00051  -0.00043   3.14123
   D87       -3.14132  -0.00100   0.00000  -0.00524  -0.00526   3.13660
   D88       -0.00026  -0.00044   0.00000  -0.00227  -0.00230  -0.00256
   D89        0.00023   0.00039   0.00000   0.00205   0.00212   0.00235
   D90       -3.14083  -0.00018   0.00000  -0.00092  -0.00084   3.14151
   D91       -3.14158   0.00042   0.00000   0.00229   0.00225  -3.13933
   D92        0.00054  -0.00014   0.00000  -0.00068  -0.00071  -0.00017
   D93        1.11926   0.00099   0.00000   0.00352   0.00366   1.12292
   D94       -3.06953   0.00069   0.00000   0.00236   0.00247  -3.06707
   D95       -0.97514  -0.00098   0.00000  -0.00418  -0.00414  -0.97927
   D96       -3.06954  -0.00646   0.00000  -0.01840  -0.01865  -3.08819
   D97       -0.97514  -0.00676   0.00000  -0.01957  -0.01985  -0.99499
   D98        1.11926  -0.00844   0.00000  -0.02611  -0.02645   1.09280
   D99       -0.97514   0.00646   0.00000   0.01595   0.01618  -0.95896
   D100       1.11926   0.00616   0.00000   0.01479   0.01499   1.13424
   D101      -3.06953   0.00449   0.00000   0.00824   0.00839  -3.06115
[...]
 .00000565,-0.00001413,-0.00000683,-0.00000127,0.00000765,0.00000222,-0
 .00000135,0.00000238,-0.00001018,0.00000144,0.00000998,0.00000203,0.,-
 0.00000143,0.00080385,0.00010987,0.00023271,-0.00033682,0.00014463,-0.
 00028783,-0.00004765,-0.00025222,0.00009131,-0.00007455,0.00016934,-0.
 00004872,-0.00009151,-0.00023764,0.00018686,-0.00008938,-0.00027831,-0
 .00001632,0.00005402,-0.00007755,0.00015915,-0.00004655,-0.00009541,-0
 .00007075,-0.00012226,-0.00000169,0.00012132,0.02246231,0.02443141,-0.
 02102176,-0.01933809,-0.02642145,-0.05742910,-0.01782402,-0.01706189,0
 .04003755,0.08931809,0.07990389,-0.30730970,-0.00163342,-0.00264324,-0
 .00222220,-0.01119602,-0.01846948,-0.12936324,-0.00172877,-0.00309845,
 -0.00421788,-0.00271861,0.04634585,0.72868216,-0.00001476,-0.00003835,
 0.00000520,-0.00001385,-0.00001559,-0.00001066,0.00005935,0.00001066,0
 .00000543,0.00000329,-0.00000357,0.00000498,-0.00007667,0.00005012,0.0
 0000554,0.00014268,-0.00008572,-0.00004955,0.00002037,-0.00002094,0.00
 001112,0.00000962,0.00000531,0.00000100,-0.00000729,0.00000713,-0.0000
 0100,-0.00000482,-0.00000485,-0.00000376,-0.00000234,-0.00000402,0.000
 00157,0.00000189,0.00000068,0.00000116,-0.00008029,0.00001834,-0.00000
 483,0.00000688,-0.00002086,-0.00000141,0.00000084,-0.00003453,-0.00000
 526,0.00000030,0.00001605,0.00000746,-0.00000833,0.00000644,-0.0000057
 8,0.00000515,-0.00000075,0.00000511,0.00000089,-0.00000471,-0.00000018
 ,-0.00000506,0.00001382,0.00000263,-0.00000375,-0.00001530,0.00000690,
 -0.00000686,0.00000742,-0.00000174,-0.00000078,-0.00000640,-0.00001130
 ,-0.00000293,0.00001871,0.00000171,0.00000146,0.00000429,0.00000360,0.
 00001309,0.00000256,0.00000173,-0.00000188,0.00000084,-0.00000096,-0.0
 0000135,-0.00000110,-0.00000165,-0.00000218,0.00000379,0.00000074,-0.0
 0000027,-0.00000742,-0.00000253,-0.00000071,0.00000142,0.00000059,-0.0
 0000210,-0.00000084,-0.00000024,0.00000122,-0.00000299,-0.00000163,-0.
 00000155,-0.00000116,0.00000043,-0.00011406,-0.00019222,0.00052050,-0.
 00007874,-0.00001620,-0.00016640,-0.00000848,0.00001586,0.00000440,0.0
 0000803,0.00001549,0.00001320,0.00003654,-0.00008024,-0.00005222,-0.00
 009293,-0.00002241,0.00000707,0.00001508,-0.00001301,-0.00002609,0.000
 01681,-0.00001517,-0.00004452,0.00002161,0.00000592,0.00002426,0.00427
 386,-0.00336053,-0.00179610,-0.00407460,-0.00689114,0.00228235,0.00001
 534,0.00054399,-0.00012266,-0.16945016,-0.14946194,0.01490822,-0.00170
 957,0.00243523,-0.00029520,0.00427107,-0.00304080,0.00243546,-0.000717
 91,0.00056809,-0.00005696,-0.00371077,-0.00712002,-0.00109058,0.173186
 05,-0.00001997,0.00000820,-0.00002277,0.00001065,-0.00002311,0.0000046
 7,0.00007929,-0.00002714,-0.00000119,-0.00003947,0.00002110,0.00002912
 ,-0.00004564,0.00006598,-0.00002746,0.00000958,-0.00018254,-0.00023461
 ,0.00001005,-0.00002180,0.00000821,0.00000994,-0.00000190,-0.00000700,
 -0.00000843,0.00001098,0.00000782,-0.00000610,-0.00000582,-0.00000464,
 -0.00000601,-0.00000825,0.00000162,0.00000302,-0.00000368,0.00000033,-
 0.00011672,0.00001631,-0.00001106,0.00001233,-0.00002019,-0.00000061,0
 .00000508,-0.00002073,-0.00000660,-0.00000448,0.00000737,0.00000847,-0
 .00000569,0.00000672,-0.00000472,0.00000054,-0.00000365,0.00000206,0.0
 0000198,-0.00000225,0.00000194,-0.00000493,0.00000235,0.00000856,0.000
 00246,-0.00000291,-0.00000687,-0.00000491,0.00000742,-0.00000054,0.000
 00100,-0.00000459,0.00000293,0.00000112,0.00001198,-0.00000764,0.00000
 024,0.00000115,0.00000719,0.00000942,-0.00000108,0.00000269,-0.0000010
 7,-0.00000008,-0.00000003,0.00000038,0.00000039,-0.00000224,-0.0000029
 5,0.00000202,-0.00000258,-0.00000178,-0.00000018,-0.00000127,-0.000001
 16,0.00000046,-0.00000040,-0.00000343,0.00000065,-0.00000016,0.0000026
 8,-0.00000090,-0.00000084,-0.00000241,0.00000010,0.00000196,-0.0002979
 3,-0.00011759,0.00053877,-0.00015888,0.00002638,-0.00010804,0.00001477
 ,-0.00001031,0.00001034,0.00001402,0.00000334,0.00000585,0.00000727,-0
 .00007928,0.00000437,-0.00002104,-0.00009409,0.00006183,0.00000687,0.0
 0003235,0.00001804,-0.00001423,0.00001331,-0.00005386,-0.00001357,0.00
 001151,-0.00001062,-0.00312965,0.00328205,-0.00298680,-0.00866794,-0.0
 0724255,0.00287728,0.00060531,0.00018159,-0.00015239,-0.14952635,-0.20
 211803,0.01462341,0.00246183,-0.00111601,0.00009186,-0.00310710,0.0038
 0130,0.00173627,0.00054001,-0.00061708,0.00006255,-0.00536778,-0.00358
 089,-0.00120838,0.16482871,0.20920329,-0.00001419,-0.00001613,-0.00000
 748,-0.00001374,-0.00000362,0.00000594,0.00003802,-0.00000213,-0.00000
 081,-0.00001702,-0.00000918,0.00002159,-0.00008298,0.00004583,0.000002
 20,0.00008550,-0.00020437,-0.00019252,0.00000245,-0.00000191,-0.000002
 37,0.00001015,-0.00000051,-0.00001202,-0.00000687,0.00000623,0.0000020
 1,-0.00000301,-0.00000324,-0.00000054,-0.00000488,-0.00000402,0.000000
 10,0.00000172,-0.00000097,-0.00000080,-0.00005720,0.00001090,-0.000004
 00,0.00000320,-0.00001166,-0.00000192,0.00000110,-0.00001452,-0.000005
 49,-0.00000314,0.00000652,0.00000458,-0.00000297,0.00000265,-0.0000024
 3,0.00000234,-0.00000072,0.00000181,0.00000082,-0.00000228,-0.00000018
 ,-0.00000793,0.00000313,0.00000438,-0.00000064,0.00000084,0.00000091,0
 .00000099,0.00000236,0.00000124,-0.00000070,-0.00000239,-0.00000422,0.
 00000280,0.00000826,-0.00000260,0.00000158,0.00000057,0.00000431,-0.00
 000559,0.00000283,0.00000106,0.00000031,-0.00000066,-0.00000013,0.0000
 0035,-0.00000044,0.00000006,0.00000112,0.00000011,-0.00000236,-0.00000
 070,-0.00000017,-0.00000422,-0.00000134,-0.00000033,0.00000117,0.,-0.0
 0000026,0.00000053,-0.00000164,0.00000065,0.00000172,0.00000031,0.0000
 0014,-0.00000014,-0.00073662,-0.00060610,0.00060710,-0.00011404,0.0000
 2126,-0.00014115,-0.00000144,-0.00000931,0.00000799,0.00002345,-0.0000
 0700,0.00001116,0.00002959,-0.00007509,-0.00002232,-0.00004162,-0.0000
 1521,0.00012502,-0.00000233,0.00002240,-0.00001970,0.00001224,0.000009
 71,-0.00004311,0.00003271,-0.00000068,-0.00000941,-0.00090227,-0.00211
 804,-0.00427325,-0.01864445,-0.02064107,0.00582121,-0.00006833,-0.0001
 1931,-0.00121209,0.01489699,0.01462131,-0.06175682,0.00007442,0.000502
 49,0.00118192,0.00147200,0.00064545,-0.00509574,-0.00005059,0.00006370
 ,0.00022476,0.01995117,0.02242941,0.00291745,-0.01637150,-0.01549183,0
 .06068838,-0.00000536,-0.00002189,-0.00002287,-0.00000973,0.00000412,0
 .00000692,-0.00000125,-0.00000902,0.00000049,-0.00001955,0.00000830,0.
 00000249,0.00002498,0.00001333,-0.00000091,-0.00004903,0.00000594,-0.0
 0000684,0.00000188,0.00000672,-0.00000820,0.00000036,0.00000140,0.0000
 0077,0.00000314,-0.00000310,-0.00000142,0.00000144,0.00000168,0.000002
 59,-0.00000251,-0.00000020,-0.00000114,-0.00000124,0.00000199,-0.00000
 030,-0.00000993,0.00000672,0.00000610,-0.00000354,-0.00000688,-0.00000
 743,-0.00000029,-0.00000374,-0.00000547,-0.00000081,0.00000252,-0.0000
 0214,0.00000093,-0.00000046,0.00000019,0.00000238,0.00000081,0.0000014
 1,-0.00000094,-0.00000085,0.00000180,-0.00000612,0.00000317,-0.0000106
 0,0.00000256,0.00000384,0.00000424,0.00000290,-0.00000132,0.00000242,-
 0.00000167,-0.00000161,0.00000208,0.00001322,0.00000099,-0.00000742,0.
 00000305,-0.00000092,0.00000681,-0.00003436,0.00001171,0.00000530,0.00
 000400,-0.00000146,0.00000122,0.00000283,-0.00000229,0.00000255,0.0000
 0849,-0.00000124,-0.00000415,-0.00000240,0.00000126,-0.00001761,-0.000
 00441,-0.00000024,0.00000542,0.00000312,-0.00000139,0.00000173,-0.0000
 1046,0.00000161,0.00000810,0.00000324,-0.00000073,-0.00000197,0.000464
 78,0.00024011,-0.00040404,0.00002073,0.00012970,0.00008042,0.00000911,
 -0.00002074,0.00002907,-0.00000772,-0.00001734,0.00000941,-0.00002465,
 0.00000287,0.00001019,-0.00012887,-0.00006290,-0.00007127,0.00000019,0
 .00002474,-0.00002008,-0.00001450,0.00004776,-0.00004442,0.00000723,-0
 .00000997,0.00001738,0.00371126,-0.00464038,-0.00170439,-0.00051813,-0
 .00028912,-0.00055821,0.00661754,0.00372339,-0.01054715,0.00121265,-0.
 00629491,-0.00063994,-0.00062391,0.00069940,0.00002641,-0.07905629,-0.
 04080950,0.08496618,-0.00175167,0.00265643,0.00010925,-0.00343338,-0.0
 0480608,0.02018319,-0.00012047,-0.00045727,0.00111160,0.07519429,-0.00
 000379,0.00001624,0.00004065,-0.00000432,0.00001289,-0.00000796,-0.000
 02255,0.00002036,-0.00000353,0.00001658,-0.00002070,-0.00000457,-0.000
 04124,-0.00003795,0.00002494,0.00019432,0.00003639,0.00008924,-0.00000
 774,-0.00000352,0.00000113,0.00000189,-0.00000391,-0.00000845,-0.00000
 168,0.00000213,-0.00000059,0.00000062,-0.00000144,0.00000224,-0.000002
 77,0.00000057,-0.00000091,0.00000098,-0.00000271,-0.00000296,0.0000332
 4,-0.00001625,-0.00000083,-0.00000176,0.00001699,0.00000652,-0.0000036
 9,0.00001397,0.00000582,0.00000149,-0.00000701,-0.00000118,0.00000154,
 -0.00000249,0.00000254,-0.00000273,0.00000069,-0.00000283,0.00000069,0
 .00000099,-0.00000311,0.00001016,-0.00000449,0.00001421,-0.00000743,0.
 00000042,0.00000140,0.00000054,-0.00000298,-0.00000039,0.00000016,0.00
 000227,-0.00000965,-0.00001010,-0.00000653,0.00000905,-0.00000260,-0.0
 0000046,-0.00000863,0.00001843,-0.00001808,-0.00000849,-0.00000237,0.0
 0000032,-0.00000093,-0.00000235,0.00000248,-0.00000134,-0.00000537,-0.
 00000698,0.00000579,0.00000526,0.00001575,0.00001885,0.00000367,-0.000
 00202,-0.00000603,-0.00000113,0.00000153,-0.00000122,0.00000869,0.0000
 0791,-0.00000555,0.00000003,0.00000216,0.00000124,0.00010760,0.0004598
 9,-0.00051058,-0.00000966,-0.00001266,0.00000628,0.00000487,-0.0000236
 1,-0.00001758,0.00001264,-0.00000878,-0.00000615,0.00001308,-0.0000004
 1,-0.00000217,-0.00003588,-0.00016629,-0.00014926,-0.00001351,-0.00000
 759,0.00002120,0.00005419,0.00000475,-0.00006918,0.00001956,0.00000190
 ,-0.00001530,-0.00462233,0.00227252,-0.00243192,-0.00022088,-0.0005723
 0,-0.00055546,0.00553254,0.00750420,-0.01376937,-0.00621891,-0.0002563
 8,-0.00123298,0.00070613,-0.00045222,0.00013184,-0.04070439,-0.0748518
 8,0.07398472,0.00250197,-0.00129799,0.00051911,-0.00667800,-0.00309433
 ,0.02252518,-0.00053998,-0.00015360,0.00120301,0.04741342,0.07157429,-
 0.00002888,-0.00000384,0.00001107,-0.00001547,-0.00002501,-0.00000054,
 0.00009058,-0.00001323,-0.00000424,-0.00003817,0.00002088,0.00001924,-
 0.00004486,0.00005601,0.00000238,0.00022626,-0.00003128,-0.00001936,0.
 00002594,-0.00003057,-0.00000094,0.00001426,0.00000046,-0.00001080,-0.
 00000751,0.00001247,0.00000144,-0.00000393,-0.00000863,0.00000046,-0.0
 0001632,-0.00001102,0.00000120,0.00000316,-0.00000400,-0.00000440,-0.0
 0014535,0.00001700,0.00001119,0.00001058,-0.00002856,-0.00002012,0.000
 00368,-0.00002743,-0.00002107,-0.00000642,0.00001181,0.00000585,-0.000
 00408,0.00000723,-0.00000558,0.00000218,-0.00000384,0.00000276,-0.0000
 0084,-0.00000286,0.00000883,-0.00001197,0.00000814,-0.00000880,0.00001
 216,0.00000279,-0.00000670,-0.00000326,0.00000731,0.00000186,-0.000003
 73,-0.00000927,0.00001731,0.00002798,0.00001534,-0.00002931,0.00000386
 ,-0.00000193,0.00002302,-0.00004546,0.00001507,0.00001721,0.00000477,-
 0.00000290,0.00000303,0.00000718,-0.00000323,0.00000221,0.00000870,0.0
 0000202,-0.00001735,0.00000400,0.00000154,-0.00003162,-0.00001046,-0.0
 0000024,0.00001067,0.00000112,-0.00000107,0.00000300,-0.00001247,0.000
 00059,0.00001641,0.00000049,-0.00000020,-0.00000023,0.00084377,0.00097
 133,-0.00050397,-0.00009590,0.00011258,-0.00007918,0.00000409,-0.00001
 772,0.00002342,0.00000651,0.00000145,0.00000698,0.00001406,-0.00009414
 ,-0.00003097,-0.00027100,-0.00038026,-0.00026280,0.00000880,0.00002299
 ,0.00001189,0.00004433,0.00005682,-0.00018349,0.00001106,0.00000970,0.
 00001727,-0.00244724,-0.00360481,-0.00204285,-0.00058344,-0.00060766,0
 .00023770,0.01042233,0.00974796,-0.01938095,0.00026160,-0.00012455,0.0
 0163579,0.00003380,0.00013544,-0.00005828,0.08489872,0.07396747,-0.280
 08724,-0.00028856,0.00011138,0.00116355,-0.00087447,-0.00100153,0.0021
 9125,-0.00006511,-0.00010606,0.00000500,-0.09203604,-0.07961713,0.2965
 8048,0.00000638,-0.00002057,0.00000742,-0.00000022,-0.00001310,0.00000
 299,0.00003791,-0.00000169,0.00000246,0.00000305,0.00000381,-0.0000037
 6,-0.00003907,0.00002184,-0.00000127,0.00001218,-0.00006755,-0.0000196
 8,0.00001271,-0.00000833,0.00000090,0.00000267,0.00000667,0.00000781,-
 0.00000337,0.00000255,0.00000160,-0.00000227,-0.00000185,-0.00000235,-
 0.00000106,-0.00000327,0.00000122,0.00000048,0.00000122,0.00000137,-0.
 00004894,0.00001463,0.00000028,0.00000431,-0.00001703,-0.00000609,0.00
 000253,-0.00002266,-0.00000646,-0.00000093,0.00001147,0.00000408,-0.00
 000394,0.00000410,-0.00000439,0.00000330,-0.00000089,0.00000347,-0.000
 00044,-0.00000196,0.00000244,-0.00000827,0.00000841,-0.00000937,0.0000
 0387,-0.00000879,0.00000062,-0.00000318,0.00000533,-0.00000187,-0.0000
 0087,-0.00000262,0.00000471,0.00000385,0.00001149,-0.00000579,0.000001
 79,0.00000204,0.00000644,0.00000167,0.00000837,0.00000724,-0.00000009,
 0.00000045,0.00000016,0.00000087,-0.00000188,0.00000038,0.00000028,0.0
 0000724,-0.00000639,0.00000140,-0.00001189,-0.00000996,-0.00000328,0.0
 0000173,0.00000543,-0.00000011,-0.00000123,0.00000071,-0.00000395,-0.0
 0000621,0.00000348,-0.00000184,-0.00000151,-0.00000058,-0.00044002,0.0
 0055173,-0.00002614,0.00001890,0.00004980,0.00005612,0.00000277,0.0000
 5731,-0.00001321,0.00001543,-0.00000402,0.00000924,0.00000545,0.000035
 07,-0.00004617,-0.00001913,-0.00001798,-0.00002191,-0.00001121,0.00002
 237,-0.00001232,0.00000728,0.00002097,-0.00001927,0.00000695,-0.000008
 53,-0.00000860,-0.00073134,-0.00001218,0.00052528,0.00362666,-0.004085
 71,0.00222625,0.00146524,-0.00607582,0.00177320,0.00655590,0.00583069,
 0.00961882,0.00037321,0.00008380,0.00052385,-0.00366505,-0.00790425,-0
 .01913605,-0.00019185,-0.00057968,-0.00096319,-0.07749661,-0.05410905,
 -0.07646084,-0.00179593,0.00239837,-0.00059922,-0.00147311,0.00250287,
 0.00006498,0.07376906,0.00000752,-0.00001645,-0.00004127,0.00000087,-0
 .00001688,-0.00000310,0.00005205,-0.00000523,0.00000506,-0.00000458,0.
 00002765,0.00001121,0.00004142,0.00003857,-0.00003271,0.00002326,0.000
 06274,-0.00003313,-0.00000317,-0.00000712,0.00000981,0.00000254,-0.000
 00099,0.00000506,-0.00000075,0.00000570,-0.00000105,-0.00000376,-0.000
 00399,-0.00000311,-0.00000187,-0.00000288,0.00000150,0.00000170,-0.000
 00245,0.00000066,-0.00006800,0.00000706,-0.00000452,0.00000844,-0.0000
 1055,-0.00000112,0.00000458,-0.00000919,-0.00000379,-0.00000385,0.0000
 0257,0.00000518,-0.00000240,0.00000378,-0.00000265,-0.00000074,-0.0000
 0270,0.00000022,0.00000090,-0.00000057,0.00000176,-0.00000232,-0.00000
 073,0.00000851,0.00000268,-0.00000013,-0.00000616,-0.00000164,0.000004
 26,-0.00000081,-0.00000015,-0.00000180,0.00000339,0.00000103,0.0000064
 3,-0.00000635,0.00000009,-0.00000029,0.00000514,0.00000954,-0.00000257
 ,0.00000500,-0.00000080,-0.00000033,0.00000037,0.00000062,0.00000057,-
 0.00000110,-0.00000381,0.00000310,-0.00000794,0.00000058,-0.00000078,-
 0.00000401,-0.00000115,-0.00000023,0.00000128,-0.00000203,0.00000068,0
 .00000010,0.00000117,-0.00000081,0.00000088,-0.00000261,0.00000064,0.0
 0000134,0.00051998,-0.00035260,0.00002474,-0.00005518,-0.00005712,-0.0
 0005842,-0.00000539,0.00001592,0.00000085,-0.00000099,0.00000933,-0.00
 001559,0.00000534,-0.00005003,0.00000338,-0.00003798,-0.00003293,0.000
 00153,-0.00000282,0.00000206,0.00000134,0.00001630,0.00000395,-0.00002
 693,0.00002762,0.00000202,-0.00000066,0.00000570,-0.00062603,0.0007507
 7,-0.00405847,0.00301096,0.00161451,-0.00619567,0.00025837,0.00139451,
 0.00407387,0.00738894,0.00914521,0.00000588,0.00039232,0.00049731,-0.0
 0594501,-0.00651418,-0.02109970,-0.00043846,-0.00034506,-0.00107832,-0
 .05418954,-0.10428249,-0.10384456,0.00244187,-0.00125804,-0.00024661,0
 .00245163,-0.00093604,0.00044719,0.06132595,0.10329358,-0.00001140,0.0
 0001003,0.00000001,0.00000372,-0.00002484,-0.00000203,0.00005931,-0.00
 000705,0.00000059,-0.00001321,0.00001379,0.00000797,-0.00002898,0.0000
 3144,0.00000178,0.00005459,-0.00004888,-0.00003783,0.00002290,-0.00002
 087,0.00000450,0.00000631,0.00000141,-0.00000072,-0.00000547,0.0000070
 0,0.00000121,-0.00000401,-0.00000492,-0.00000373,-0.00000384,-0.000005
 31,0.00000201,0.00000199,-0.00000142,0.00000025,-0.00008548,0.00001302
 ,-0.00000326,0.00000962,-0.00001836,-0.00000421,0.00000250,-0.00002242
 ,-0.00000500,-0.00000048,0.00000914,0.00000524,-0.00000568,0.00000624,
 -0.00000450,0.00000143,-0.00000251,0.00000291,0.00000052,-0.00000236,0
 .00000348,-0.00000175,0.00000737,-0.00000417,0.00000390,-0.00000891,-0
 .00000425,-0.00000830,0.00000740,-0.00000138,0.00000056,-0.00000627,0.
 00000720,0.00000263,0.00001227,-0.00000831,0.00000032,0.00000196,0.000
 00728,0.00000657,0.00000271,0.00000502,-0.00000075,0.00000048,0.000000
 27,0.00000086,-0.00000086,-0.00000152,-0.00000156,0.00000412,-0.000002
 64,0.00000034,-0.00000554,-0.00000485,-0.00000237,0.00000144,0.0000018
 7,-0.00000259,-0.00000021,0.00000006,0.00000055,-0.00000339,0.00000101
 ,-0.00000239,-0.00000087,0.00000126,-0.00003947,0.00003953,0.00007973,
 -0.00004451,0.00000645,-0.00002229,0.00000293,-0.00000388,0.00000410,-
 0.00000291,0.00001627,0.00000441,0.00000333,-0.00003396,-0.00001922,-0
 .00002222,-0.00005537,-0.00005462,0.00003848,-0.00001923,0.00001728,-0
 .00003397,-0.00003157,-0.00002422,-0.00005994,0.00002526,0.00002715,0.
 00054731,0.00066918,0.00002128,0.00317143,0.00269559,-0.00310679,0.000
 80674,0.00041445,0.00131788,-0.01146559,-0.01458375,-0.01859971,-0.000
 55286,-0.00073286,-0.00106725,0.00196809,0.00251113,0.00552764,0.00015
 127,0.00015393,0.00014546,-0.07643619,-0.10377611,-0.25274050,-0.00007
 254,0.00034307,0.00117422,-0.00048173,-0.00015876,0.00077831,0.0825219
 4,0.11257581,0.26657165\\-0.00000115,0.00000336,-0.00000050,-0.0000010
 1,0.00000060,0.00000185,-0.00000036,0.00000138,-0.00000389,-0.00000199
 ,0.00000014,0.00000221,0.00000038,-0.00000260,-0.00000205,-0.00000194,
 -0.00000024,0.00000154,-0.00000067,-0.00000294,0.00000009,-0.00000432,
 0.00000376,0.00000179,-0.00000042,-0.00000320,0.00000672,-0.00000070,-
 0.00000089,-0.00000345,0.00000151,0.00000136,-0.00000142,0.00000207,-0
 .00000016,-0.00000160,0.00000131,0.00000121,-0.00000010,-0.00000015,-0
 .00000206,0.00000284,-0.00000409,0.00000048,-0.00000030,0.00000164,0.0
 0000009,-0.00000383,0.00000084,-0.00000137,0.00000101,-0.00000105,-0.0
 0000163,-0.00000166,-0.00000194,-0.00000100,-0.00000239,0.00000472,-0.
 00000014,0.00000238,0.00000220,0.00000015,0.00000038,-0.00000181,-0.00
 000026,0.00000017,-0.00000083,0.00000175,-0.00000030,0.00000020,-0.000
 00204,0.00000296,-0.00001042,-0.00000230,0.00000280,0.00000039,-0.0000
 0089,-0.00000492,0.00000233,0.00000094,-0.00000468,0.00000082,-0.00000
 107,0.00000375,-0.00000589,-0.00000065,0.00000606,-0.00000173,0.000001
 09,0.00000127,0.00000528,-0.00000373,0.00000538,0.00000024,-0.00000250
 ,0.00000225,0.00000079,-0.00000064,-0.00000016,0.,-0.00000106,-0.00000
 073,-0.00000094,-0.00000235,0.00000220,0.00000676,-0.00000012,0.000002
 69,0.00000060,0.00000005,-0.00000049,0.00000212,0.00000135,-0.00000139
 ,0.00000228,0.00000226,-0.00000071,0.00000043,0.00000442,-0.00000194,-
 0.00000069,0.00000116,-0.00000087,-0.00000052,0.00000094,0.00000108,0.
 00000399,0.00000245,-0.00000018,-0.00000534,0.00000044,-0.00000285,0.0
 0000369,0.00000154,-0.00000047,0.00000155,-0.00000303,-0.00000224,0.00
 000039,0.00000212,-0.00000397,-0.00000015,0.00000012,-0.00000192,0.000
 00140,0.00000044,0.00000171,0.00000162,0.00000087,0.00000026,-0.000001
 84,0.00000107,-0.00000008,-0.00000089,0.00000036,-0.00000063,0.0000006
 1,0.00000083,-0.00000205,0.00000072,0.00000013,-0.00000159\\\@
 The archive entry for this job was punched.


 SEEN ON A WALL AT THE UNIVERSITY OF ILLINOIS AT CHICAGO CIRCLE:

 TO DO IS TO BE  -- SOCRATES
 TO BE IS TO DO  -- SARTRE
 OO BE DO BE DO  -- SINATRA
 Job cpu time:       0 days  7 hours 32 minutes 59.7 seconds.
 Elapsed time:       0 days  0 hours 56 minutes 39.6 seconds.
 File lengths (MBytes):  RWF=   1456 Int=      0 D2E=      0 Chk=     36 Scr=      1
 Normal termination of Gaussian 16 at Thu Sep 23 14:51:10 2021.
