 Entering Gaussian System, Link 0=/home/rong/g16/g16
 Input=/home/rong/g16/092321/tbuClbz.gjf
 Output=/home/rong/g16/092321/tbuClbz.log
 Initial command:
 /home/rong/g16/l1.exe "/tmp/Gau-96355.inp" -scrdir="/tmp/"
 Default is to use a total of   8 processors:
                                8 via shared-memory
                                1 via Linda
 Entering Link 1 = /home/rong/g16/l1.exe PID=     96357.
  
 Copyright (c) 1988-2019, Gaussian, Inc.  All Rights Reserved.
  
 This is part of the Gaussian(R) 16 program.  It is based on
 the Gaussian(R) 09 system (copyright 2009, Gaussian, Inc.),
 the Gaussian(R) 03 system (copyright 2003, Gaussian, Inc.),
 the Gaussian(R) 98 system (copyright 1998, Gaussian, Inc.),
 the Gaussian(R) 94 system (copyright 1995, Gaussian, Inc.),
 the Gaussian 92(TM) system (copyright 1992, Gaussian, Inc.),
 the Gaussian 90(TM) system (copyright 1990, Gaussian, Inc.),
 the Gaussian 88(TM) system (copyright 1988, Gaussian, Inc.),
 the Gaussian 86(TM) system (copyright 1986, Carnegie Mellon
 University), and the Gaussian 82(TM) system (copyright 1983,
 Carnegie Mellon University). Gaussian is a federally registered
 trademark of Gaussian, Inc.
  
 This software contains proprietary and confidential information,
 including trade secrets, belonging to Gaussian, Inc.
  
 This software is provided under written license and may be
 used, copied, transmitted, or stored only in accord with that
 written license.
  
 The following legend is applicable only to US Government
 contracts under FAR:
  
                    RESTRICTED RIGHTS LEGEND
  
 Use, reproduction and disclosure by the US Government is
 subject to restrictions as set forth in subparagraphs (a)
 and (c) of the Commercial Computer Software - Restricted
 Rights clause in FAR 52.227-19.
  
 Gaussian, Inc.
 340 Quinnipiac St., Bldg. 40, Wallingford CT 06492
  
  
 ---------------------------------------------------------------
 Warning -- This program may not be used in any manner that
 competes with the business of Gaussian, Inc. or will provide
 assistance to any competitor of Gaussian, Inc.  The licensee
 of this program is prohibited from giving any competitor of
 Gaussian, Inc. access to this program.  By using this program,
 the user acknowledges that Gaussian, Inc. is engaged in the
 business of creating and licensing software in the field of
 computational chemistry and represents and warrants to the
 licensee that it is not a competitor of Gaussian, Inc. and that
 it will not use this program in any manner prohibited above.
 ---------------------------------------------------------------
  

 Cite this work as:
 Gaussian 16, Revision C.01,
 M. J. Frisch, G. W. Trucks, H. B. Schlegel, G. E. Scuseria, 
 M. A. Robb, J. R. Cheeseman, G. Scalmani, V. Barone, 
 G. A. Petersson, H. Nakatsuji, X. Li, M. Caricato, A. V. Marenich, 
 J. Bloino, B. G. Janesko, R. Gomperts, B. Mennucci, H. P. Hratchian, 
 J. V. Ortiz, A. F. Izmaylov, J. L. Sonnenberg, D. Williams-Young, 
 F. Ding, F. Lipparini, F. Egidi, J. Goings, B. Peng, A. Petrone, 
 T. Henderson, D. Ranasinghe, V. G. Zakrzewski, J. Gao, N. Rega, 
 G. Zheng, W. Liang, M. Hada, M. Ehara, K. Toyota, R. Fukuda, 
 J. Hasegawa, M. Ishida, T. Nakajima, Y. Honda, O. Kitao, H. Nakai, 
 T. Vreven, K. Throssell, J. A. Montgomery, Jr., J. E. Peralta, 
 F. Ogliaro, M. J. Bearpark, J. J. Heyd, E. N. Brothers, K. N. Kudin, 
 V. N. Staroverov, T. A. Keith, R. Kobayashi, J. Normand, 
 K. Raghavachari, A. P. Rendell, J. C. Burant, S. S. Iyengar, 
 J. Tomasi, M. Cossi, J. M. Millam, M. Klene, C. Adamo, R. Cammi, 
 J. W. Ochterski, R. L. Martin, K. Morokuma, O. Farkas, 
 J. B. Foresman, and D. J. Fox, Gaussian, Inc., Wallingford CT, 2019.
 
 ******************************************
 Gaussian 16:  ES64L-G16RevC.01  3-Jul-2019
                23-Sep-2021 
 ******************************************
 %mem=15GB
 %chk=tbuClbz.chk
 %nprocshared=8
 Will use up to    8 processors via shared memory.
 ----------------------------------------------------
 # opt freq b3lyp/6-31g(d) scrf=(smd,solvent=toluene)
 ----------------------------------------------------
 1/18=20,19=15,26=3,38=1/1,3;
 2/9=110,12=2,17=6,18=5,40=1/2;
 3/5=1,6=6,7=1,11=2,25=1,30=1,70=32201,71=1,72=13,74=-5/1,2,3;
 4//1;
 5/5=2,38=5,53=13/2;
 6/7=2,8=2,9=2,10=2,28=1/1;
 7//1,2,3,16;
 1/18=20,19=15,26=3/3(2);
 2/9=110/2;
 99//99;
 2/9=110/2;
 3/5=1,6=6,7=1,11=2,25=1,30=1,70=32205,71=1,72=13,74=-5/1,2,3;
 4/5=5,16=3,69=1/1;
 5/5=2,38=5,53=13/2;
 7//1,2,3,16;
 1/18=20,19=15,26=3/3(-5);
 2/9=110/2;
 6/7=2,8=2,9=2,10=2,19=2,28=1/1;
 99/9=1/99;
 -------
 tbuClbz
 -------
 Symbolic Z-matrix:
 Charge =  0 Multiplicity = 1
 C                     1.75      0.20588   0. 
 C                     3.14516   0.20588   0. 
 C                     3.8427    1.41363   0. 
 C                     3.14504   2.62214  -0.0012 
 C                     1.75022   2.62206  -0.00168 
 C                     1.05262   1.41386  -0.00068 
 H                     1.20024  -0.74643   0.00045 
 H                     1.2001    3.57435  -0.00263 
 C                     3.91555   3.95553  -0.00128 
 H                     4.11452   4.25255   1.00723 
 H                     4.83997   3.83325  -0.52607 
 H                     3.32751   4.70724  -0.48506 
 C                     3.91471  -1.12805   0.00184 
 C                     4.80625  -1.20462   1.25519 
 H                     5.10229  -2.21942   1.42086 
 H                     5.67608  -0.59822   1.11175 
 H                     4.25983  -0.84942   2.10381 
 C                     2.9136   -2.29822   0.01173 
 H                     2.29143  -2.24267  -0.85701 
 H                     3.44826  -3.22505   0.00886 
 H                     2.30553  -2.23996   0.89023 
 C                     4.79383  -1.21526  -1.25956 
 H                     5.18585  -2.20644  -1.35327 
 H                     4.20473  -0.98171  -2.12172 
 H                     5.60174  -0.51821  -1.18013 
 O                     5.2727    1.41374   0.00082 
 H                     5.59276   2.10444   0.58571 
 Cl                   -0.70738   1.41415  -0.00097 
 

 GradGradGradGradGradGradGradGradGradGradGradGradGradGradGradGradGradGrad
 Berny optimization.
 Initialization pass.
                           ----------------------------
                           !    Initial Parameters    !
                           ! (Angstroms and Degrees)  !
 --------------------------                            --------------------------
 ! Name  Definition              Value          Derivative Info.                !
 --------------------------------------------------------------------------------
 ! R1    R(1,2)                  1.3952         estimate D2E/DX2                !
 ! R2    R(1,6)                  1.3948         estimate D2E/DX2                !
 ! R3    R(1,7)                  1.0996         estimate D2E/DX2                !
 ! R4    R(2,3)                  1.3947         estimate D2E/DX2                !
 ! R5    R(2,13)                 1.54           estimate D2E/DX2                !
 ! R6    R(3,4)                  1.3954         estimate D2E/DX2                !
 ! R7    R(3,26)                 1.43           estimate D2E/DX2                !
 ! R8    R(4,5)                  1.3948         estimate D2E/DX2                !
 ! R9    R(4,9)                  1.54           estimate D2E/DX2                !
 ! R10   R(5,6)                  1.3951         estimate D2E/DX2                !
 ! R11   R(5,8)                  1.0998         estimate D2E/DX2                !
 ! R12   R(6,28)                 1.76           estimate D2E/DX2                !
 ! R13   R(9,10)                 1.07           estimate D2E/DX2                !
 ! R14   R(9,11)                 1.07           estimate D2E/DX2                !
 ! R15   R(9,12)                 1.07           estimate D2E/DX2                !
 ! R16   R(13,14)                1.54           estimate D2E/DX2                !
 ! R17   R(13,18)                1.54           estimate D2E/DX2                !
 ! R18   R(13,22)                1.54           estimate D2E/DX2                !
 ! R19   R(14,15)                1.07           estimate D2E/DX2                !
 ! R20   R(14,16)                1.07           estimate D2E/DX2                !
 ! R21   R(14,17)                1.07           estimate D2E/DX2                !
 ! R22   R(18,19)                1.07           estimate D2E/DX2                !
 ! R23   R(18,20)                1.07           estimate D2E/DX2                !
 ! R24   R(18,21)                1.07           estimate D2E/DX2                !
 ! R25   R(22,23)                1.07           estimate D2E/DX2                !
 ! R26   R(22,24)                1.07           estimate D2E/DX2                !
 ! R27   R(22,25)                1.07           estimate D2E/DX2                !
 ! R28   R(26,27)                0.96           estimate D2E/DX2                !
 ! A1    A(2,1,6)              119.9985         estimate D2E/DX2                !
 ! A2    A(2,1,7)              119.9972         estimate D2E/DX2                !
 ! A3    A(6,1,7)              120.0043         estimate D2E/DX2                !
 ! A4    A(1,2,3)              120.0086         estimate D2E/DX2                !
 ! A5    A(1,2,13)             119.9808         estimate D2E/DX2                !
 ! A6    A(3,2,13)             120.0105         estimate D2E/DX2                !
 ! A7    A(2,3,4)              119.9942         estimate D2E/DX2                !
 ! A8    A(2,3,26)             120.0128         estimate D2E/DX2                !
 ! A9    A(4,3,26)             119.993          estimate D2E/DX2                !
 ! A10   A(3,4,5)              119.994          estimate D2E/DX2                !
 ! A11   A(3,4,9)              119.9811         estimate D2E/DX2                !
 ! A12   A(5,4,9)              120.0249         estimate D2E/DX2                !
 ! A13   A(4,5,6)              120.0047         estimate D2E/DX2                !
 ! A14   A(4,5,8)              120.0113         estimate D2E/DX2                !
 ! A15   A(6,5,8)              119.984          estimate D2E/DX2                !
 ! A16   A(1,6,5)              120.0            estimate D2E/DX2                !
 ! A17   A(1,6,28)             120.008          estimate D2E/DX2                !
 ! A18   A(5,6,28)             119.992          estimate D2E/DX2                !
 ! A19   A(4,9,10)             109.4712         estimate D2E/DX2                !
 ! A20   A(4,9,11)             109.4712         estimate D2E/DX2                !
 ! A21   A(4,9,12)             109.4712         estimate D2E/DX2                !
 ! A22   A(10,9,11)            109.4713         estimate D2E/DX2                !
 ! A23   A(10,9,12)            109.4712         estimate D2E/DX2                !
 ! A24   A(11,9,12)            109.4712         estimate D2E/DX2                !
 ! A25   A(2,13,14)            109.4712         estimate D2E/DX2                !
 ! A26   A(2,13,18)            109.4712         estimate D2E/DX2                !
 ! A27   A(2,13,22)            109.4712         estimate D2E/DX2                !
 ! A28   A(14,13,18)           109.4712         estimate D2E/DX2                !
 ! A29   A(14,13,22)           109.4713         estimate D2E/DX2                !
 ! A30   A(18,13,22)           109.4712         estimate D2E/DX2                !
 ! A31   A(13,14,15)           109.4712         estimate D2E/DX2                !
 ! A32   A(13,14,16)           109.4712         estimate D2E/DX2                !
 ! A33   A(13,14,17)           109.4712         estimate D2E/DX2                !
 ! A34   A(15,14,16)           109.4713         estimate D2E/DX2                !
 ! A35   A(15,14,17)           109.4712         estimate D2E/DX2                !
 ! A36   A(16,14,17)           109.4712         estimate D2E/DX2                !
 ! A37   A(13,18,19)           109.4712         estimate D2E/DX2                !
 ! A38   A(13,18,20)           109.4712         estimate D2E/DX2                !
 ! A39   A(13,18,21)           109.4712         estimate D2E/DX2                !
 ! A40   A(19,18,20)           109.4713         estimate D2E/DX2                !
 ! A41   A(19,18,21)           109.4712         estimate D2E/DX2                !
 ! A42   A(20,18,21)           109.4712         estimate D2E/DX2                !
 ! A43   A(13,22,23)           109.4712         estimate D2E/DX2                !
 ! A44   A(13,22,24)           109.4712         estimate D2E/DX2                !
 ! A45   A(13,22,25)           109.4712         estimate D2E/DX2                !
 ! A46   A(23,22,24)           109.4713         estimate D2E/DX2                !
 ! A47   A(23,22,25)           109.4712         estimate D2E/DX2                !
 ! A48   A(24,22,25)           109.4712         estimate D2E/DX2                !
 ! A49   A(3,26,27)            109.5            estimate D2E/DX2                !
 ! D1    D(6,1,2,3)              0.0323         estimate D2E/DX2                !
 ! D2    D(6,1,2,13)           179.9532         estimate D2E/DX2                !
 ! D3    D(7,1,2,3)           -179.9729         estimate D2E/DX2                !
 ! D4    D(7,1,2,13)            -0.052          estimate D2E/DX2                !
 ! D5    D(2,1,6,5)              0.0149         estimate D2E/DX2                !
 ! D6    D(2,1,6,28)           179.9892         estimate D2E/DX2                !
 ! D7    D(7,1,6,5)           -179.9798         estimate D2E/DX2                !
 ! D8    D(7,1,6,28)            -0.0056         estimate D2E/DX2                !
 ! D9    D(1,2,3,4)             -0.0568         estimate D2E/DX2                !
 ! D10   D(1,2,3,26)           179.9619         estimate D2E/DX2                !
 ! D11   D(13,2,3,4)          -179.9777         estimate D2E/DX2                !
 ! D12   D(13,2,3,26)            0.041          estimate D2E/DX2                !
 ! D13   D(1,2,13,14)         -120.3267         estimate D2E/DX2                !
 ! D14   D(1,2,13,18)           -0.3267         estimate D2E/DX2                !
 ! D15   D(1,2,13,22)          119.6733         estimate D2E/DX2                !
 ! D16   D(3,2,13,14)           59.5942         estimate D2E/DX2                !
 ! D17   D(3,2,13,18)          179.5942         estimate D2E/DX2                !
 ! D18   D(3,2,13,22)          -60.4058         estimate D2E/DX2                !
 ! D19   D(2,3,4,5)              0.0341         estimate D2E/DX2                !
 ! D20   D(2,3,4,9)           -179.9964         estimate D2E/DX2                !
 ! D21   D(26,3,4,5)          -179.9846         estimate D2E/DX2                !
 ! D22   D(26,3,4,9)            -0.0151         estimate D2E/DX2                !
 ! D23   D(2,3,26,27)         -139.731          estimate D2E/DX2                !
 ! D24   D(4,3,26,27)           40.2877         estimate D2E/DX2                !
 ! D25   D(3,4,5,6)              0.0131         estimate D2E/DX2                !
 ! D26   D(3,4,5,8)           -179.9995         estimate D2E/DX2                !
 ! D27   D(9,4,5,6)           -179.9563         estimate D2E/DX2                !
 ! D28   D(9,4,5,8)              0.0311         estimate D2E/DX2                !
 ! D29   D(3,4,9,10)           -88.6004         estimate D2E/DX2                !
 ! D30   D(3,4,9,11)            31.3997         estimate D2E/DX2                !
 ! D31   D(3,4,9,12)           151.3996         estimate D2E/DX2                !
 ! D32   D(5,4,9,10)            91.3691         estimate D2E/DX2                !
 ! D33   D(5,4,9,11)          -148.6309         estimate D2E/DX2                !
 ! D34   D(5,4,9,12)           -28.6309         estimate D2E/DX2                !
 ! D35   D(4,5,6,1)             -0.0376         estimate D2E/DX2                !
 ! D36   D(4,5,6,28)           179.9881         estimate D2E/DX2                !
 ! D37   D(8,5,6,1)            179.975          estimate D2E/DX2                !
 ! D38   D(8,5,6,28)             0.0007         estimate D2E/DX2                !
 ! D39   D(2,13,14,15)         162.7345         estimate D2E/DX2                !
 ! D40   D(2,13,14,16)         -77.2654         estimate D2E/DX2                !
 ! D41   D(2,13,14,17)          42.7345         estimate D2E/DX2                !
 ! D42   D(18,13,14,15)         42.7345         estimate D2E/DX2                !
 ! D43   D(18,13,14,16)        162.7346         estimate D2E/DX2                !
 ! D44   D(18,13,14,17)        -77.2655         estimate D2E/DX2                !
 ! D45   D(22,13,14,15)        -77.2655         estimate D2E/DX2                !
 ! D46   D(22,13,14,16)         42.7345         estimate D2E/DX2                !
 ! D47   D(22,13,14,17)        162.7345         estimate D2E/DX2                !
 ! D48   D(2,13,18,19)          59.7641         estimate D2E/DX2                !
 ! D49   D(2,13,18,20)         179.7641         estimate D2E/DX2                !
 ! D50   D(2,13,18,21)         -60.2359         estimate D2E/DX2                !
 ! D51   D(14,13,18,19)        179.764          estimate D2E/DX2                !
 ! D52   D(14,13,18,20)        -60.2359         estimate D2E/DX2                !
 ! D53   D(14,13,18,21)         59.764          estimate D2E/DX2                !
 ! D54   D(22,13,18,19)        -60.2359         estimate D2E/DX2                !
 ! D55   D(22,13,18,20)         59.7641         estimate D2E/DX2                !
 ! D56   D(22,13,18,21)        179.7641         estimate D2E/DX2                !
 ! D57   D(2,13,22,23)        -169.5872         estimate D2E/DX2                !
 ! D58   D(2,13,22,24)         -49.5872         estimate D2E/DX2                !
 ! D59   D(2,13,22,25)          70.4128         estimate D2E/DX2                !
 ! D60   D(14,13,22,23)         70.4128         estimate D2E/DX2                !
 ! D61   D(14,13,22,24)       -169.5872         estimate D2E/DX2                !
 ! D62   D(14,13,22,25)        -49.5872         estimate D2E/DX2                !
 ! D63   D(18,13,22,23)        -49.5872         estimate D2E/DX2                !
 ! D64   D(18,13,22,24)         70.4128         estimate D2E/DX2                !
 ! D65   D(18,13,22,25)       -169.5872         estimate D2E/DX2                !
 --------------------------------------------------------------------------------
 Trust Radius=3.00D-01 FncErr=1.00D-07 GrdErr=1.00D-06 EigMax=2.50D+02 EigMin=1.00D-04
 Number of steps in this run=    152 maximum allowed number of steps=    168.
 GradGradGradGradGradGradGradGradGradGradGradGradGradGradGradGradGradGrad

                          Input orientation:                          
 ---------------------------------------------------------------------
 Center     Atomic      Atomic             Coordinates (Angstroms)
 Number     Number       Type             X           Y           Z
 ---------------------------------------------------------------------
      1          6           0        1.750000    0.205882    0.000000
      2          6           0        3.145160    0.205882    0.000000
      3          6           0        3.842698    1.413633    0.000000
      4          6           0        3.145044    2.622142   -0.001199
      5          6           0        1.750219    2.622064   -0.001678
      6          6           0        1.052618    1.413858   -0.000682
      7          1           0        1.200241   -0.746435    0.000450
      8          1           0        1.200097    3.574345   -0.002631
      9          6           0        3.915548    3.955530   -0.001282
     10          1           0        4.114521    4.252548    1.007227
     11          1           0        4.839967    3.833251   -0.526065
     12          1           0        3.327507    4.707236   -0.485064
     13          6           0        3.914712   -1.128054    0.001842
     14          6           0        4.806253   -1.204622    1.255194
     15          1           0        5.102293   -2.219421    1.420856
     16          1           0        5.676082   -0.598222    1.111746
     17          1           0        4.259831   -0.849423    2.103815
     18          6           0        2.913602   -2.298216    0.011735
     19          1           0        2.291435   -2.242671   -0.857013
     20          1           0        3.448265   -3.225054    0.008861
     21          1           0        2.305531   -2.239959    0.890231
     22          6           0        4.793834   -1.215259   -1.259563
     23          1           0        5.185848   -2.206442   -1.353269
     24          1           0        4.204729   -0.981713   -2.121718
     25          1           0        5.601742   -0.518211   -1.180130
     26          8           0        5.272698    1.413737    0.000824
     27          1           0        5.592765    2.104438    0.585709
     28         17           0       -0.707382    1.414151   -0.000970
 ---------------------------------------------------------------------
                    Distance matrix (angstroms):
                    1          2          3          4          5
     1  C    0.000000
     2  C    1.395160   0.000000
     3  C    2.416205   1.394712   0.000000
     4  C    2.790065   2.416260   1.395427   0.000000
     5  C    2.416183   2.789946   2.416356   1.394825   0.000000
     6  C    1.394829   2.416183   2.790080   2.416236   1.395138
     7  H    1.099610   2.165553   3.412986   3.889675   3.413102
     8  H    3.413055   3.889707   3.413506   2.165528   1.099761
     9  C    4.330065   3.827971   2.542941   1.540000   2.542987
    10  H    4.793847   4.281317   3.024538   2.148263   3.044058
    11  H    4.794001   4.038183   2.669427   2.148263   3.359836
    12  H    4.794372   4.531084   3.368758   2.148263   2.658842
    13  C    2.542709   1.540000   2.542708   3.828364   4.329946
    14  C    3.592453   2.514809   3.059283   4.356864   5.055947
    15  H    4.374791   3.425098   4.099329   5.412375   6.058051
    16  H    4.158928   2.878911   2.940211   4.244473   5.198303
    17  H    3.440779   2.604266   3.117926   4.210179   4.773100
    18  C    2.761271   2.514810   3.826380   4.925816   5.055967
    19  H    2.650101   2.731068   4.063182   5.012731   4.968920
    20  H    3.828251   3.444311   4.655435   5.855062   6.088700
    21  H    2.661440   2.734891   4.062528   5.013926   4.974248
    22  C    3.587627   2.514809   3.066306   4.362068   5.056769
    23  H    4.410861   3.437303   4.091495   5.413705   6.078225
    24  H    3.455108   2.652312   3.220317   4.313619   4.848340
    25  H    4.093035   2.819896   2.866874   4.157772   5.107280
    26  O    3.724019   2.446494   1.430000   2.446867   3.723965
    27  H    4.326016   3.152513   1.970533   2.569789   3.921495
    28  Cl   2.738365   4.037573   4.550080   4.037379   2.738404
                    6          7          8          9         10
     6  C    0.000000
     7  H    2.165331   0.000000
     8  H    2.165516   4.320781   0.000000
     9  C    3.828376   5.429675   2.742076   0.000000
    10  H    4.295264   5.873369   3.158107   1.070000   0.000000
    11  H    4.524765   5.873529   3.686417   1.070000   1.747303
    12  H    4.031883   5.873969   2.458059   1.070000   1.747303
    13  C    3.827912   2.741166   5.429707   5.083585   5.477372
    14  C    4.745887   3.845470   6.117599   5.385096   5.506423
    15  H    5.623287   4.406047   7.128897   6.446771   6.559967
    16  H    5.163563   4.614119   6.219855   5.007492   5.096996
    17  H    4.453939   3.714276   5.776575   5.257142   5.220511
    18  C    4.152459   2.311658   6.117458   6.333515   6.733924
    19  H    3.954514   2.040752   5.979855   6.464342   6.999065
    20  H    5.220989   3.346227   7.161440   7.195780   7.573320
    21  H    3.964076   2.060095   5.985426   6.463052   6.740830
    22  C    4.742756   3.836840   6.118425   5.393674   5.957912
    23  H    5.658591   4.455249   7.150380   6.435171   6.959758
    24  H    4.491477   3.685906   5.854572   5.381101   6.098847
    25  H    5.081193   4.562791   6.124541   4.924155   5.454952
    26  O    4.220080   4.609908   4.610240   2.881418   3.226928
    27  H    4.629653   5.269181   4.669294   2.565961   2.641451
    28  Cl   1.760000   2.882214   2.881825   5.275423   5.685394
                   11         12         13         14         15
    11  H    0.000000
    12  H    1.747303   0.000000
    13  C    5.074380   5.884938   0.000000
    14  C    5.343612   6.337607   1.540000   0.000000
    15  H    6.363502   7.400066   2.148263   1.070000   0.000000
    16  H    4.797861   6.017765   2.148263   1.070000   1.747303
    17  H    5.401876   6.200644   2.148263   1.070000   1.747303
    18  C    6.449419   7.035232   1.540000   2.514809   2.604266
    19  H    6.597073   7.036547   2.148263   3.444310   3.618031
    20  H    7.214059   7.948570   2.148263   2.734890   2.396005
    21  H    6.731504   7.155375   2.148263   2.731068   2.846729
    22  C    5.101725   6.150277   1.540000   2.514810   2.878912
    23  H    6.105882   7.211529   2.148263   2.819897   2.775414
    24  H    5.112095   5.984338   2.148263   3.437304   3.858416
    25  H    4.465795   5.741129   2.148263   2.652313   3.147808
    26  O    2.513745   3.855774   2.881810   2.940548   3.904532
    27  H    2.188959   3.612826   3.688599   3.466510   4.431003
    28  Cl   6.074607   5.230591   5.275090   6.231861   6.998340
                   16         17         18         19         20
    16  H    0.000000
    17  H    1.747303   0.000000
    18  C    3.425098   2.878912   0.000000
    19  H    4.246888   3.818668   1.070000   0.000000
    20  H    3.616597   3.269724   1.070000   1.747303   0.000000
    21  H    3.755660   2.688060   1.070000   1.747303   1.747303
    22  C    2.604266   3.425099   2.514809   2.734890   2.731068
    23  H    2.983790   3.827589   2.652312   2.936871   2.431495
    24  H    3.573127   4.227963   2.819896   2.617287   3.184994
    25  H    2.294477   3.562965   3.437304   3.746505   3.657617
    26  O    2.333420   3.251210   4.398187   4.795116   4.984677
    27  H    2.754638   3.578639   5.185627   5.646024   5.773657
    28  Cl   6.785012   5.850393   5.185881   4.806044   6.228300
                   21         22         23         24         25
    21  H    0.000000
    22  C    3.444311   0.000000
    23  H    3.651116   1.070000   0.000000
    24  H    3.776503   1.070000   1.747303   0.000000
    25  H    4.256268   1.070000   1.747303   1.747303   0.000000
    26  O    4.790054   2.954574   3.866110   3.374008   2.288089
    27  H    5.456412   3.881199   4.744355   4.333721   3.161733
    28  Cl   4.819170   6.225851   7.047522   5.862301   6.702946
                   26         27         28
    26  O    0.000000
    27  H    0.960000   0.000000
    28  Cl   5.980080   6.364946   0.000000
 Stoichiometry    C11H15ClO
 Framework group  C1[X(C11H15ClO)]
 Deg. of freedom    78
 Full point group                 C1      NOp   1
 Largest Abelian subgroup         C1      NOp   1
 Largest concise Abelian subgroup C1      NOp   1
                         Standard orientation:                         
 ---------------------------------------------------------------------
 Center     Atomic      Atomic             Coordinates (Angstroms)
 Number     Number       Type             X           Y           Z
 ---------------------------------------------------------------------
      1          6           0        0.553530   -1.053659   -0.001809
      2          6           0       -0.574148   -0.232226    0.005930
      3          6           0       -0.426836    1.154663    0.013770
      4          6           0        0.848629    1.720704    0.015072
      5          6           0        1.975992    0.899402    0.007814
      6          6           0        1.828460   -0.487885   -0.001024
      7          1           0        0.437169   -2.147076   -0.008439
      8          1           0        2.981344    1.345205    0.008846
      9          6           0        1.010938    3.252102    0.023812
     10          1           0        1.022426    3.615298   -0.982595
     11          1           0        0.193090    3.694432    0.553311
     12          1           0        1.930072    3.510599    0.506795
     13          6           0       -1.981580   -0.857312    0.003971
     14          6           0       -2.750470   -0.386860   -1.244661
     15          1           0       -3.587682   -1.031816   -1.412015
     16          1           0       -3.096123    0.614561   -1.094398
     17          1           0       -2.101832   -0.416453   -2.095128
     18          6           0       -1.861414   -2.392495   -0.015322
     19          1           0       -1.323611   -2.719061    0.850139
     20          1           0       -2.839280   -2.826857   -0.012529
     21          1           0       -1.337859   -2.698220   -0.896981
     22          6           0       -2.740287   -0.417665    1.269939
     23          1           0       -3.640508   -0.988562    1.362560
     24          1           0       -2.124420   -0.580852    2.129577
     25          1           0       -2.983087    0.621887    1.197281
     26          8           0       -1.582616    1.996698    0.020878
     27          1           0       -1.436129    2.746886   -0.559948
     28         17           0        3.251204   -1.523892   -0.010497
 ---------------------------------------------------------------------
 Rotational constants (GHZ):           0.8954557           0.5394942           0.3642708
 Standard basis: 6-31G(d) (6D, 7F)
 There are   229 symmetry adapted cartesian basis functions of A   symmetry.
 There are   229 symmetry adapted basis functions of A   symmetry.
   229 basis functions,   448 primitive gaussians,   229 cartesian basis functions
    53 alpha electrons       53 beta electrons
       nuclear repulsion energy       907.1698330754 Hartrees.
 NAtoms=   28 NActive=   28 NUniq=   28 SFac= 1.00D+00 NAtFMM=   60 NAOKFM=F Big=F
 Integral buffers will be    131072 words long.
 Raffenetti 2 integral format.
 Two-electron integral symmetry is turned on.
 ------------------------------------------------------------------------------
 Polarizable Continuum Model (PCM)
 =================================
 Model                : PCM.
 Atomic radii         : SMD-Coulomb.
 Polarization charges : Total charges.
 Charge compensation  : None.
 Solution method      : On-the-fly selection.
 Cavity type          : VdW (van der Waals Surface) (Alpha=1.000).
 Cavity algorithm     : GePol (No added spheres)
                        Default sphere list used, NSphG=   28.
                        Lebedev-Laikov grids with approx.  5.0 points / Ang**2.
                        Smoothing algorithm: York/Karplus (Gamma=1.0000).
                        Polarization charges: spherical gaussians, with
                                              point-specific exponents (IZeta= 3).
                        Self-potential: point-specific (ISelfS= 7).
                        Self-field    : sphere-specific E.n sum rule (ISelfD= 2).
 1st derivatives      : Analytical E(r).r(x)/FMM algorithm (CHGder, D1EAlg=3).
                        Cavity 1st derivative terms included.
 Solvent              : Toluene, Eps=   2.374100 Eps(inf)=   2.238315
 ------------------------------------------------------------------------------
 ------------------------------------------------------------------------------
 Atomic radii for non-electrostatic terms: SMD-CDS.
 ------------------------------------------------------------------------------
 Nuclear repulsion after PCM non-electrostatic terms =      907.1622176459 Hartrees.
 One-electron integrals computed using PRISM.
 NBasis=   229 RedAO= T EigKep=  3.31D-04  NBF=   229
 NBsUse=   229 1.00D-06 EigRej= -1.00D+00 NBFU=   229
 ExpMin= 1.43D-01 ExpMax= 2.52D+04 ExpMxC= 3.78D+03 IAcc=3 IRadAn=         5 AccDes= 0.00D+00
 Harris functional with IExCor=  402 and IRadAn=       5 diagonalized for initial guess.
 HarFok:  IExCor=  402 AccDes= 0.00D+00 IRadAn=         5 IDoV= 1 UseB2=F ITyADJ=14
 ICtDFT=  3500011 ScaDFX=  1.000000  1.000000  1.000000  1.000000
 FoFCou: FMM=F IPFlag=           0 FMFlag=      100000 FMFlg1=           0
         NFxFlg=           0 DoJE=T BraDBF=F KetDBF=T FulRan=T
         wScrn=  0.000000 ICntrl=       500 IOpCl=  0 I1Cent=   200000004 NGrid=           0
         NMat0=    1 NMatS0=      1 NMatT0=    0 NMatD0=    1 NMtDS0=    0 NMtDT0=    0
 Petite list used in FoFCou.
 Requested convergence on RMS density matrix=1.00D-08 within 128 cycles.
 Requested convergence on MAX density matrix=1.00D-06.
 Requested convergence on             energy=1.00D-06.
 No special actions if energy rises.
 Inv3:  Mode=1 IEnd=    13029168.
 Iteration    1 A*A^-1 deviation from unit magnitude is 5.00D-15 for   2071.
 Iteration    1 A*A^-1 deviation from orthogonality  is 1.61D-15 for   2082   2081.
 Iteration    1 A^-1*A deviation from unit magnitude is 4.77D-15 for   2071.
 Iteration    1 A^-1*A deviation from orthogonality  is 1.42D-15 for   2082   2081.
 Error on total polarization charges =  0.02273
 SCF Done:  E(RB3LYP) =  -963.627458004     A.U. after   13 cycles
            NFock= 13  Conv=0.47D-08     -V/T= 2.0062
 SMD-CDS (non-electrostatic) energy       (kcal/mol) =      -4.78
 (included in total energy above)

 **********************************************************************

            Population analysis using the SCF Density.

 **********************************************************************

 Orbital symmetries:
       Occupied  (A) (A) (A) (A) (A) (A) (A) (A) (A) (A) (A) (A)
                 (A) (A) (A) (A) (A) (A) (A) (A) (A) (A) (A) (A)
                 (A) (A) (A) (A) (A) (A) (A) (A) (A) (A) (A) (A)
                 (A) (A) (A) (A) (A) (A) (A) (A) (A) (A) (A) (A)
                 (A) (A) (A) (A) (A)
       Virtual   (A) (A) (A) (A) (A) (A) (A) (A) (A) (A) (A) (A)
                 (A) (A) (A) (A) (A) (A) (A) (A) (A) (A) (A) (A)
                 (A) (A) (A) (A) (A) (A) (A) (A) (A) (A) (A) (A)
                 (A) (A) (A) (A) (A) (A) (A) (A) (A) (A) (A) (A)
                 (A) (A) (A) (A) (A) (A) (A) (A) (A) (A) (A) (A)
                 (A) (A) (A) (A) (A) (A) (A) (A) (A) (A) (A) (A)
                 (A) (A) (A) (A) (A) (A) (A) (A) (A) (A) (A) (A)
                 (A) (A) (A) (A) (A) (A) (A) (A) (A) (A) (A) (A)
                 (A) (A) (A) (A) (A) (A) (A) (A) (A) (A) (A) (A)
                 (A) (A) (A) (A) (A) (A) (A) (A) (A) (A) (A) (A)
                 (A) (A) (A) (A) (A) (A) (A) (A) (A) (A) (A) (A)
                 (A) (A) (A) (A) (A) (A) (A) (A) (A) (A) (A) (A)
                 (A) (A) (A) (A) (A) (A) (A) (A) (A) (A) (A) (A)
                 (A) (A) (A) (A) (A) (A) (A) (A) (A) (A) (A) (A)
                 (A) (A) (A) (A) (A) (A) (A) (A)
 The electronic state is 1-A.
 Alpha  occ. eigenvalues -- -101.54529 -19.17224 -10.24496 -10.24380 -10.20284
 Alpha  occ. eigenvalues --  -10.19576 -10.19514 -10.19270 -10.19263 -10.18155
 Alpha  occ. eigenvalues --  -10.15819 -10.15314 -10.15215  -9.46146  -7.22530
 Alpha  occ. eigenvalues --   -7.21579  -7.21553  -1.03936  -0.88452  -0.83979
 Alpha  occ. eigenvalues --   -0.81222  -0.76057  -0.72353  -0.70045  -0.67921
 Alpha  occ. eigenvalues --   -0.67857  -0.61360  -0.59014  -0.53841  -0.53354
 Alpha  occ. eigenvalues --   -0.49069  -0.46893  -0.45018  -0.43847  -0.43123
 Alpha  occ. eigenvalues --   -0.42981  -0.41995  -0.40936  -0.40345  -0.38935
 Alpha  occ. eigenvalues --   -0.37884  -0.37587  -0.37158  -0.36077  -0.35904
 Alpha  occ. eigenvalues --   -0.34476  -0.32230  -0.32095  -0.30874  -0.30476
 Alpha  occ. eigenvalues --   -0.29678  -0.24532  -0.22378
 Alpha virt. eigenvalues --   -0.00203   0.00035   0.03498   0.06682   0.10966
 Alpha virt. eigenvalues --    0.12785   0.13891   0.14614   0.15283   0.16255
 Alpha virt. eigenvalues --    0.17216   0.17396   0.18087   0.18525   0.19305
 Alpha virt. eigenvalues --    0.19717   0.20474   0.21115   0.21574   0.23615
 Alpha virt. eigenvalues --    0.23741   0.24120   0.25385   0.27672   0.28586
 Alpha virt. eigenvalues --    0.30974   0.33202   0.35637   0.35715   0.41022
 Alpha virt. eigenvalues --    0.42500   0.43543   0.44558   0.47819   0.50339
 Alpha virt. eigenvalues --    0.50805   0.51547   0.52437   0.53874   0.55135
 Alpha virt. eigenvalues --    0.55871   0.57521   0.58393   0.59434   0.60684
 Alpha virt. eigenvalues --    0.62650   0.62851   0.63697   0.64890   0.67083
 Alpha virt. eigenvalues --    0.67870   0.69631   0.71650   0.72431   0.74059
 Alpha virt. eigenvalues --    0.76370   0.77378   0.78174   0.81133   0.81631
 Alpha virt. eigenvalues --    0.83442   0.83927   0.84080   0.85119   0.85889
 Alpha virt. eigenvalues --    0.86835   0.87601   0.89499   0.89961   0.91816
 Alpha virt. eigenvalues --    0.92128   0.92938   0.93080   0.93282   0.94036
 Alpha virt. eigenvalues --    0.95731   0.96089   0.97316   0.99083   1.00055
 Alpha virt. eigenvalues --    1.01013   1.02889   1.04505   1.04876   1.05397
 Alpha virt. eigenvalues --    1.08433   1.10415   1.12899   1.14966   1.18948
 Alpha virt. eigenvalues --    1.20711   1.23836   1.25206   1.28216   1.30652
 Alpha virt. eigenvalues --    1.35326   1.35673   1.36742   1.39830   1.40852
 Alpha virt. eigenvalues --    1.44511   1.47911   1.50018   1.52221   1.54768
 Alpha virt. eigenvalues --    1.59020   1.64900   1.66447   1.70243   1.74489
 Alpha virt. eigenvalues --    1.74883   1.77912   1.79653   1.81080   1.83770
 Alpha virt. eigenvalues --    1.84172   1.87224   1.89689   1.91346   1.92879
 Alpha virt. eigenvalues --    1.93771   1.95254   1.97955   1.99513   2.03352
 Alpha virt. eigenvalues --    2.07678   2.08647   2.11738   2.11980   2.13357
 Alpha virt. eigenvalues --    2.15960   2.18676   2.21780   2.22947   2.25850
 Alpha virt. eigenvalues --    2.27043   2.29254   2.29439   2.30258   2.31979
 Alpha virt. eigenvalues --    2.32121   2.33438   2.36298   2.37955   2.39150
 Alpha virt. eigenvalues --    2.46145   2.47208   2.50981   2.52139   2.59260
 Alpha virt. eigenvalues --    2.60323   2.67275   2.68380   2.71489   2.74116
 Alpha virt. eigenvalues --    2.74530   2.82900   2.83948   2.86086   2.88302
 Alpha virt. eigenvalues --    3.04452   3.16363   3.39857   4.00547   4.06175
 Alpha virt. eigenvalues --    4.12217   4.16782   4.23163   4.26808   4.32482
 Alpha virt. eigenvalues --    4.32817   4.36998   4.43019   4.43640   4.72404
 Alpha virt. eigenvalues --    4.79654
          Condensed to atoms (all electrons):
               1          2          3          4          5          6
     1  C    5.096634   0.536919  -0.042881  -0.039957  -0.044825   0.468499
     2  C    0.536919   4.860706   0.469544  -0.056022  -0.042031  -0.014392
     3  C   -0.042881   0.469544   4.808873   0.463762  -0.011329  -0.049170
     4  C   -0.039957  -0.056022   0.463762   4.847737   0.518178  -0.014492
     5  C   -0.044825  -0.042031  -0.011329   0.518178   5.042066   0.502161
     6  C    0.468499  -0.014392  -0.049170  -0.014492   0.502161   5.040565
     7  H    0.358401  -0.033049   0.004889   0.000310   0.004233  -0.047949
     8  H    0.004266   0.000323   0.004298  -0.035807   0.358474  -0.044145
     9  C    0.000669   0.007972  -0.046449   0.334686  -0.060841   0.006521
    10  H    0.000042  -0.000332  -0.002208  -0.024429  -0.001501  -0.000184
    11  H   -0.000016   0.000258  -0.006693  -0.033281   0.003286  -0.000143
    12  H    0.000001  -0.000107   0.003013  -0.027356  -0.001558   0.000100
    13  C   -0.060054   0.364098  -0.050823   0.007032   0.000494   0.007710
    14  C    0.001126  -0.047852  -0.009695  -0.000181   0.000018  -0.000192
    15  H   -0.000045   0.004892   0.000294   0.000007  -0.000000   0.000003
    16  H   -0.000267  -0.007706   0.003058   0.000216  -0.000010   0.000017
    17  H    0.001143  -0.002613   0.000249  -0.000100  -0.000037  -0.000044
    18  C   -0.008062  -0.054262   0.005926  -0.000213  -0.000016   0.000688
    19  H    0.001421  -0.009107  -0.000295  -0.000000  -0.000009   0.000294
    20  H    0.000701   0.004992  -0.000063   0.000003   0.000000  -0.000022
    21  H    0.001235  -0.008574  -0.000281  -0.000001  -0.000010   0.000264
    22  C    0.000581  -0.045271  -0.009999  -0.000284   0.000007  -0.000189
    23  H   -0.000068   0.005321   0.000332   0.000009   0.000000   0.000002
    24  H    0.001167  -0.003155   0.000086  -0.000037  -0.000028  -0.000036
    25  H   -0.000301  -0.008612   0.002439   0.000184  -0.000010   0.000019
    26  O    0.003717  -0.065159   0.261008  -0.069308   0.004027  -0.000057
    27  H   -0.000113   0.005153  -0.014792  -0.013925  -0.000105   0.000004
    28  Cl  -0.062344   0.003388   0.000935   0.003508  -0.062770   0.221432
               7          8          9         10         11         12
     1  C    0.358401   0.004266   0.000669   0.000042  -0.000016   0.000001
     2  C   -0.033049   0.000323   0.007972  -0.000332   0.000258  -0.000107
     3  C    0.004889   0.004298  -0.046449  -0.002208  -0.006693   0.003013
     4  C    0.000310  -0.035807   0.334686  -0.024429  -0.033281  -0.027356
     5  C    0.004233   0.358474  -0.060841  -0.001501   0.003286  -0.001558
     6  C   -0.047949  -0.044145   0.006521  -0.000184  -0.000143   0.000100
     7  H    0.550958  -0.000168   0.000008  -0.000000  -0.000000  -0.000000
     8  H   -0.000168   0.560550  -0.009421   0.000623   0.000054   0.004397
     9  C    0.000008  -0.009421   5.220122   0.366145   0.364229   0.368384
    10  H   -0.000000   0.000623   0.366145   0.541392  -0.033560  -0.026139
    11  H   -0.000000   0.000054   0.364229  -0.033560   0.545050  -0.021391
    12  H   -0.000000   0.004397   0.368384  -0.026139  -0.021391   0.521700
    13  C   -0.019485   0.000009  -0.000206   0.000003   0.000007   0.000002
    14  C    0.000439   0.000000   0.000003  -0.000001   0.000003  -0.000000
    15  H   -0.000027   0.000000  -0.000000   0.000000  -0.000000   0.000000
    16  H   -0.000018   0.000000  -0.000006   0.000001  -0.000004  -0.000000
    17  H    0.000022  -0.000000   0.000004   0.000001  -0.000000  -0.000000
    18  C    0.010121  -0.000000   0.000002  -0.000000  -0.000000  -0.000000
    19  H    0.001897   0.000000   0.000000  -0.000000   0.000000   0.000000
    20  H   -0.000010  -0.000000  -0.000000   0.000000  -0.000000   0.000000
    21  H    0.001847   0.000000   0.000000   0.000000  -0.000000  -0.000000
    22  C    0.000495  -0.000000   0.000010   0.000000  -0.000006   0.000000
    23  H   -0.000021   0.000000  -0.000000   0.000000   0.000000  -0.000000
    24  H   -0.000000  -0.000000   0.000002  -0.000000   0.000000  -0.000000
    25  H   -0.000014   0.000000   0.000001  -0.000001   0.000014   0.000000
    26  O   -0.000036  -0.000042  -0.011063   0.000036   0.011659   0.000476
    27  H    0.000003  -0.000005   0.008444   0.001656  -0.000963  -0.000168
    28  Cl   0.001271   0.000468  -0.000168   0.000003   0.000003  -0.000009
              13         14         15         16         17         18
     1  C   -0.060054   0.001126  -0.000045  -0.000267   0.001143  -0.008062
     2  C    0.364098  -0.047852   0.004892  -0.007706  -0.002613  -0.054262
     3  C   -0.050823  -0.009695   0.000294   0.003058   0.000249   0.005926
     4  C    0.007032  -0.000181   0.000007   0.000216  -0.000100  -0.000213
     5  C    0.000494   0.000018  -0.000000  -0.000010  -0.000037  -0.000016
     6  C    0.007710  -0.000192   0.000003   0.000017  -0.000044   0.000688
     7  H   -0.019485   0.000439  -0.000027  -0.000018   0.000022   0.010121
     8  H    0.000009   0.000000   0.000000   0.000000  -0.000000  -0.000000
     9  C   -0.000206   0.000003  -0.000000  -0.000006   0.000004   0.000002
    10  H    0.000003  -0.000001   0.000000   0.000001   0.000001  -0.000000
    11  H    0.000007   0.000003  -0.000000  -0.000004  -0.000000  -0.000000
    12  H    0.000002  -0.000000   0.000000  -0.000000  -0.000000  -0.000000
    13  C    4.852690   0.367913  -0.032217  -0.025123  -0.032756   0.385850
    14  C    0.367913   5.181420   0.364639   0.367827   0.369444  -0.060850
    15  H   -0.032217   0.364639   0.578863  -0.027219  -0.028737  -0.008129
    16  H   -0.025123   0.367827  -0.027219   0.540785  -0.028440   0.005600
    17  H   -0.032756   0.369444  -0.028737  -0.028440   0.571109  -0.002190
    18  C    0.385850  -0.060850  -0.008129   0.005600  -0.002190   5.166257
    19  H   -0.025322   0.006620   0.000097  -0.000227  -0.000189   0.367684
    20  H   -0.025570  -0.006162   0.005051   0.000006  -0.000127   0.364807
    21  H   -0.025816  -0.005528   0.000098  -0.000041   0.003351   0.367867
    22  C    0.375439  -0.058261  -0.001890  -0.009443   0.006231  -0.062219
    23  H   -0.031288  -0.003007   0.002188   0.000270  -0.000139  -0.007270
    24  H   -0.032253   0.006361  -0.000158   0.000134  -0.000251  -0.003487
    25  H   -0.024088  -0.008536   0.000041   0.004871   0.000106   0.005593
    26  O   -0.001800  -0.009101   0.000401   0.012033  -0.000336   0.000063
    27  H   -0.000277   0.000541  -0.000023   0.000057  -0.000013   0.000008
    28  Cl  -0.000141   0.000003  -0.000000  -0.000000   0.000001  -0.000036
              19         20         21         22         23         24
     1  C    0.001421   0.000701   0.001235   0.000581  -0.000068   0.001167
     2  C   -0.009107   0.004992  -0.008574  -0.045271   0.005321  -0.003155
     3  C   -0.000295  -0.000063  -0.000281  -0.009999   0.000332   0.000086
     4  C   -0.000000   0.000003  -0.000001  -0.000284   0.000009  -0.000037
     5  C   -0.000009   0.000000  -0.000010   0.000007   0.000000  -0.000028
     6  C    0.000294  -0.000022   0.000264  -0.000189   0.000002  -0.000036
     7  H    0.001897  -0.000010   0.001847   0.000495  -0.000021  -0.000000
     8  H    0.000000  -0.000000   0.000000  -0.000000   0.000000  -0.000000
     9  C    0.000000  -0.000000   0.000000   0.000010  -0.000000   0.000002
    10  H   -0.000000   0.000000   0.000000   0.000000   0.000000  -0.000000
    11  H    0.000000  -0.000000  -0.000000  -0.000006   0.000000   0.000000
    12  H    0.000000   0.000000  -0.000000   0.000000  -0.000000  -0.000000
    13  C   -0.025322  -0.025570  -0.025816   0.375439  -0.031288  -0.032253
    14  C    0.006620  -0.006162  -0.005528  -0.058261  -0.003007   0.006361
    15  H    0.000097   0.005051   0.000098  -0.001890   0.002188  -0.000158
    16  H   -0.000227   0.000006  -0.000041  -0.009443   0.000270   0.000134
    17  H   -0.000189  -0.000127   0.003351   0.006231  -0.000139  -0.000251
    18  C    0.367684   0.364807   0.367867  -0.062219  -0.007270  -0.003487
    19  H    0.566927  -0.027982  -0.036159  -0.005557  -0.000037   0.003982
    20  H   -0.027982   0.564888  -0.028168  -0.005594   0.004838  -0.000143
    21  H   -0.036159  -0.028168   0.568622   0.006546   0.000028  -0.000154
    22  C   -0.005557  -0.005594   0.006546   5.176401   0.365315   0.369622
    23  H   -0.000037   0.004838   0.000028   0.365315   0.578063  -0.029015
    24  H    0.003982  -0.000143  -0.000154   0.369622  -0.029015   0.568452
    25  H   -0.000035  -0.000009  -0.000222   0.370312  -0.027416  -0.027739
    26  O    0.000003  -0.000001   0.000001  -0.011159   0.000211  -0.000011
    27  H   -0.000000  -0.000000  -0.000000   0.000482  -0.000007  -0.000007
    28  Cl   0.000004  -0.000000   0.000005   0.000003  -0.000000   0.000001
              25         26         27         28
     1  C   -0.000301   0.003717  -0.000113  -0.062344
     2  C   -0.008612  -0.065159   0.005153   0.003388
     3  C    0.002439   0.261008  -0.014792   0.000935
     4  C    0.000184  -0.069308  -0.013925   0.003508
     5  C   -0.000010   0.004027  -0.000105  -0.062770
     6  C    0.000019  -0.000057   0.000004   0.221432
     7  H   -0.000014  -0.000036   0.000003   0.001271
     8  H    0.000000  -0.000042  -0.000005   0.000468
     9  C    0.000001  -0.011063   0.008444  -0.000168
    10  H   -0.000001   0.000036   0.001656   0.000003
    11  H    0.000014   0.011659  -0.000963   0.000003
    12  H    0.000000   0.000476  -0.000168  -0.000009
    13  C   -0.024088  -0.001800  -0.000277  -0.000141
    14  C   -0.008536  -0.009101   0.000541   0.000003
    15  H    0.000041   0.000401  -0.000023  -0.000000
    16  H    0.004871   0.012033   0.000057  -0.000000
    17  H    0.000106  -0.000336  -0.000013   0.000001
    18  C    0.005593   0.000063   0.000008  -0.000036
    19  H   -0.000035   0.000003  -0.000000   0.000004
    20  H   -0.000009  -0.000001  -0.000000  -0.000000
    21  H   -0.000222   0.000001  -0.000000   0.000005
    22  C    0.370312  -0.011159   0.000482   0.000003
    23  H   -0.027416   0.000211  -0.000007  -0.000000
    24  H   -0.027739  -0.000011  -0.000007   0.000001
    25  H    0.528437   0.009875  -0.000090  -0.000000
    26  O    0.009875   8.301285   0.235707   0.000002
    27  H   -0.000090   0.235707   0.355975  -0.000000
    28  Cl  -0.000000   0.000002  -0.000000  16.940398
 Mulliken charges:
               1
     1  C   -0.217590
     2  C    0.134677
     3  C    0.215972
     4  C    0.139760
     5  C   -0.207862
     6  C   -0.077265
     7  H    0.165885
     8  H    0.156126
     9  C   -0.549046
    10  H    0.178453
    11  H    0.171494
    12  H    0.178656
    13  C    0.025970
    14  C   -0.456990
    15  H    0.141869
    16  H    0.163630
    17  H    0.144310
    18  C   -0.473732
    19  H    0.155991
    20  H    0.148565
    21  H    0.155092
    22  C   -0.461573
    23  H    0.141690
    24  H    0.146667
    25  H    0.175178
    26  O   -0.672431
    27  H    0.422460
    28  Cl  -0.045955
 Sum of Mulliken charges =  -0.00000
 Mulliken charges with hydrogens summed into heavy atoms:
               1
     1  C   -0.051705
     2  C    0.134677
     3  C    0.215972
     4  C    0.139760
     5  C   -0.051736
     6  C   -0.077265
     9  C   -0.020443
    13  C    0.025970
    14  C   -0.007182
    18  C   -0.014084
    22  C    0.001962
    26  O   -0.249970
    28  Cl  -0.045955
 Electronic spatial extent (au):  <R**2>=           3065.5383
 Charge=             -0.0000 electrons
 Dipole moment (field-independent basis, Debye):
    X=             -1.2135    Y=              2.5480    Z=             -0.9603  Tot=              2.9811
 Quadrupole moment (field-independent basis, Debye-Ang):
   XX=            -90.0550   YY=            -75.8273   ZZ=            -87.0415
   XY=              5.3472   XZ=              1.5055   YZ=             -3.0703
 Traceless Quadrupole moment (field-independent basis, Debye-Ang):
   XX=             -5.7471   YY=              8.4807   ZZ=             -2.7336
   XY=              5.3472   XZ=              1.5055   YZ=             -3.0703
 Octapole moment (field-independent basis, Debye-Ang**2):
  XXX=             -5.7634  YYY=             35.3521  ZZZ=             -1.3143  XYY=             -2.7741
  XXY=             12.2521  XXZ=             -1.3022  XZZ=              0.2621  YZZ=              3.4120
  YYZ=             -8.8438  XYZ=              4.6894
 Hexadecapole moment (field-independent basis, Debye-Ang**3):
 XXXX=          -2338.7732 YYYY=          -1368.2151 ZZZZ=           -273.4085 XXXY=             17.5798
 XXXZ=              4.7967 YYYX=            -46.7657 YYYZ=            -25.7479 ZZZX=              0.2984
 ZZZY=             -4.8235 XXYY=           -608.6531 XXZZ=           -448.6838 YYZZ=           -282.5486
 XXYZ=             -4.4453 YYXZ=             13.9573 ZZXY=            -11.3647
 N-N= 9.071622176459D+02 E-N=-4.076072528077D+03  KE= 9.577365194606D+02
 D1PCM: PCM CHGder 1st derivatives, ID1Alg=3 FixD1E=F DoIter=F DoCFld=F I1PDM=0.
 Calling FoFJK, ICntrl=      2127 FMM=F ISym2X=0 I1Cent= 0 IOpClX= 0 NMat=1 NMatS=1 NMatT=0.
 ***** Axes restored to original set *****
 -------------------------------------------------------------------
 Center     Atomic                   Forces (Hartrees/Bohr)
 Number     Number              X              Y              Z
 -------------------------------------------------------------------
      1        6          -0.011558650   -0.000705943   -0.001304822
      2        6           0.012195001   -0.018272921   -0.001613153
      3        6           0.019186767    0.010144822    0.005529392
      4        6           0.010220525    0.020539692   -0.001932545
      5        6          -0.011543834    0.004827198    0.000258172
      6        6           0.009110601    0.001834494    0.000454413
      7        1           0.004062483    0.014242036    0.000073189
      8        1           0.005092635   -0.007737640   -0.000262466
      9        6          -0.018640419   -0.031725334   -0.002002459
     10        1           0.005214522    0.008749468    0.016897153
     11        1           0.014770783    0.001634133   -0.008376895
     12        1          -0.007178559    0.013639658   -0.006009879
     13        6          -0.005650961    0.001087737   -0.000249540
     14        6          -0.009664245    0.001093183   -0.015078609
     15        1           0.006641246   -0.016924839    0.004781102
     16        1           0.012584731    0.007828560    0.002589496
     17        1          -0.006382952    0.003418044    0.017351861
     18        6           0.017790301    0.016570841   -0.000252652
     19        1          -0.011147002   -0.004723743   -0.013658038
     20        1           0.007085764   -0.016031896   -0.000071007
     21        1          -0.011074848   -0.004564240    0.013976120
     22        6          -0.011124192    0.002168697    0.015580608
     23        1           0.008139268   -0.016730933   -0.003495328
     24        1          -0.007139250    0.001823959   -0.017299598
     25        1           0.012093885    0.008999900   -0.003230794
     26        8          -0.031522569   -0.010495413   -0.008544390
     27        1          -0.000080722    0.009262272    0.005865230
     28       17          -0.001480310    0.000048208    0.000025439
 -------------------------------------------------------------------
 Cartesian Forces:  Max     0.031725334 RMS     0.010906484

 GradGradGradGradGradGradGradGradGradGradGradGradGradGradGradGradGradGrad
 Berny optimization.
 FormGI is forming the generalized inverse of G from B-inverse, IUseBI=4.
 Internal  Forces:  Max     0.031601629 RMS     0.007348332
 Search for a local minimum.
 Step number   1 out of a maximum of  152
 All quantities printed in internal units (Hartrees-Bohrs-Radians)
 Mixed Optimization -- RFO/linear search
 Second derivative matrix not updated -- first step.
 ITU=  0
     Eigenvalues ---    0.00237   0.00237   0.00237   0.00237   0.00237
     Eigenvalues ---    0.01295   0.01359   0.01417   0.01999   0.02152
     Eigenvalues ---    0.02154   0.02155   0.02155   0.02156   0.02157
     Eigenvalues ---    0.04739   0.05241   0.05241   0.05720   0.05720
     Eigenvalues ---    0.05720   0.05720   0.05720   0.05720   0.07243
     Eigenvalues ---    0.07243   0.15006   0.15006   0.16000   0.16000
     Eigenvalues ---    0.16000   0.16000   0.16000   0.16000   0.16000
     Eigenvalues ---    0.16000   0.16000   0.16000   0.16000   0.16000
     Eigenvalues ---    0.16000   0.16000   0.16000   0.23479   0.23493
     Eigenvalues ---    0.25000   0.25000   0.25000   0.25000   0.25000
     Eigenvalues ---    0.28519   0.28519   0.28519   0.28519   0.28519
     Eigenvalues ---    0.29539   0.33709   0.33725   0.37230   0.37230
     Eigenvalues ---    0.37230   0.37230   0.37230   0.37230   0.37230
     Eigenvalues ---    0.37230   0.37230   0.37230   0.37230   0.37230
     Eigenvalues ---    0.40989   0.42403   0.42564   0.46412   0.46453
     Eigenvalues ---    0.46466   0.46497   0.55473
 RFO step:  Lambda=-2.41733108D-02 EMin= 2.36824114D-03
 Linear search not attempted -- first point.
 Iteration  1 RMS(Cart)=  0.07581609 RMS(Int)=  0.00160266
 Iteration  2 RMS(Cart)=  0.00201905 RMS(Int)=  0.00031738
 Iteration  3 RMS(Cart)=  0.00000413 RMS(Int)=  0.00031737
 Iteration  4 RMS(Cart)=  0.00000000 RMS(Int)=  0.00031737
 Variable       Old X    -DE/DX   Delta X   Delta X   Delta X     New X
                                 (Linear)    (Quad)   (Total)
    R1        2.63647   0.00764   0.00000   0.01623   0.01638   2.65285
    R2        2.63584  -0.00007   0.00000  -0.00111  -0.00109   2.63475
    R3        2.07796  -0.01437   0.00000  -0.03975  -0.03975   2.03821
    R4        2.63562   0.01476   0.00000   0.03171   0.03184   2.66746
    R5        2.91018   0.01492   0.00000   0.04821   0.04821   2.95839
    R6        2.63697   0.00751   0.00000   0.01636   0.01634   2.65332
    R7        2.70231  -0.03160   0.00000  -0.07280  -0.07280   2.62950
    R8        2.63584  -0.00133   0.00000  -0.00331  -0.00346   2.63237
    R9        2.91018  -0.00958   0.00000  -0.03097  -0.03097   2.87921
   R10        2.63643  -0.00567   0.00000  -0.01316  -0.01329   2.62314
   R11        2.07825  -0.00925   0.00000  -0.02560  -0.02560   2.05265
   R12        3.32592   0.00148   0.00000   0.00463   0.00463   3.33055
   R13        2.02201   0.01933   0.00000   0.04874   0.04874   2.07075
   R14        2.02201   0.01669   0.00000   0.04209   0.04209   2.06409
   R15        2.02201   0.01624   0.00000   0.04097   0.04097   2.06297
   R16        2.91018   0.00991   0.00000   0.03204   0.03204   2.94222
   R17        2.91018   0.00493   0.00000   0.01593   0.01593   2.92611
   R18        2.91018   0.00825   0.00000   0.02667   0.02667   2.93685
   R19        2.02201   0.01863   0.00000   0.04699   0.04699   2.06900
   R20        2.02201   0.01432   0.00000   0.03611   0.03611   2.05812
   R21        2.02201   0.01816   0.00000   0.04579   0.04579   2.06780
   R22        2.02201   0.01733   0.00000   0.04370   0.04370   2.06571
   R23        2.02201   0.01743   0.00000   0.04395   0.04395   2.06596
   R24        2.02201   0.01752   0.00000   0.04419   0.04419   2.06620
   R25        2.02201   0.01879   0.00000   0.04739   0.04739   2.06939
   R26        2.02201   0.01827   0.00000   0.04608   0.04608   2.06809
   R27        2.02201   0.01475   0.00000   0.03721   0.03721   2.05922
   R28        1.81414   0.01021   0.00000   0.01764   0.01764   1.83177
    A1        2.09437   0.00554   0.00000   0.02171   0.02188   2.11625
    A2        2.09435   0.00098   0.00000   0.00948   0.00938   2.10373
    A3        2.09447  -0.00651   0.00000  -0.03119  -0.03129   2.06318
    A4        2.09455  -0.01883   0.00000  -0.06500  -0.06469   2.02986
    A5        2.09406   0.01187   0.00000   0.04146   0.04130   2.13536
    A6        2.09458   0.00696   0.00000   0.02354   0.02339   2.11797
    A7        2.09429   0.01211   0.00000   0.04853   0.04855   2.14285
    A8        2.09462  -0.00487   0.00000  -0.01995  -0.02010   2.07452
    A9        2.09427  -0.00724   0.00000  -0.02859  -0.02872   2.06555
   A10        2.09429  -0.00468   0.00000  -0.01655  -0.01674   2.07756
   A11        2.09407   0.00489   0.00000   0.01756   0.01765   2.11172
   A12        2.09483  -0.00021   0.00000  -0.00102  -0.00093   2.09390
   A13        2.09448  -0.00187   0.00000  -0.01216  -0.01248   2.08200
   A14        2.09459   0.00037   0.00000   0.00301   0.00315   2.09775
   A15        2.09411   0.00150   0.00000   0.00915   0.00929   2.10341
   A16        2.09440   0.00773   0.00000   0.02346   0.02334   2.11774
   A17        2.09453  -0.00377   0.00000  -0.01141  -0.01136   2.08318
   A18        2.09426  -0.00395   0.00000  -0.01205  -0.01200   2.08225
   A19        1.91063   0.00440   0.00000   0.02431   0.02408   1.93471
   A20        1.91063   0.00367   0.00000   0.02098   0.02075   1.93138
   A21        1.91063   0.00242   0.00000   0.01173   0.01161   1.92225
   A22        1.91063  -0.00331   0.00000  -0.01511  -0.01545   1.89518
   A23        1.91063  -0.00394   0.00000  -0.02344  -0.02355   1.88708
   A24        1.91063  -0.00325   0.00000  -0.01847  -0.01859   1.89204
   A25        1.91063  -0.00140   0.00000   0.00445   0.00493   1.91557
   A26        1.91063   0.00849   0.00000   0.06432   0.06465   1.97528
   A27        1.91063  -0.00243   0.00000  -0.00352  -0.00304   1.90759
   A28        1.91063  -0.00536   0.00000  -0.04144  -0.04185   1.86878
   A29        1.91063   0.00547   0.00000   0.01610   0.01482   1.92545
   A30        1.91063  -0.00477   0.00000  -0.03991  -0.04018   1.87045
   A31        1.91063   0.00143   0.00000   0.00567   0.00560   1.91623
   A32        1.91063   0.00527   0.00000   0.03092   0.03055   1.94119
   A33        1.91063   0.00487   0.00000   0.02629   0.02597   1.93661
   A34        1.91063  -0.00329   0.00000  -0.01754  -0.01767   1.89297
   A35        1.91063  -0.00398   0.00000  -0.02620  -0.02621   1.88443
   A36        1.91063  -0.00430   0.00000  -0.01914  -0.01971   1.89092
   A37        1.91063   0.00648   0.00000   0.03826   0.03757   1.94820
   A38        1.91063  -0.00038   0.00000  -0.00832  -0.00815   1.90249
   A39        1.91063   0.00640   0.00000   0.03795   0.03726   1.94789
   A40        1.91063  -0.00421   0.00000  -0.02926  -0.02909   1.88155
   A41        1.91063  -0.00416   0.00000  -0.01004  -0.01144   1.89920
   A42        1.91063  -0.00413   0.00000  -0.02860  -0.02843   1.88220
   A43        1.91063   0.00129   0.00000   0.00512   0.00506   1.91569
   A44        1.91063   0.00447   0.00000   0.02409   0.02381   1.93445
   A45        1.91063   0.00519   0.00000   0.03027   0.02994   1.94057
   A46        1.91063  -0.00365   0.00000  -0.02401  -0.02401   1.88662
   A47        1.91063  -0.00317   0.00000  -0.01682  -0.01694   1.89369
   A48        1.91063  -0.00414   0.00000  -0.01865  -0.01917   1.89147
   A49        1.91114  -0.00670   0.00000  -0.03639  -0.03639   1.87475
    D1        0.00056  -0.00030   0.00000  -0.00673  -0.00667  -0.00611
    D2        3.14078  -0.00016   0.00000  -0.00319  -0.00321   3.13757
    D3       -3.14112   0.00001   0.00000   0.00026   0.00043  -3.14069
    D4       -0.00091   0.00016   0.00000   0.00380   0.00389   0.00298
    D5        0.00026   0.00045   0.00000   0.01018   0.01025   0.01051
    D6        3.14140   0.00021   0.00000   0.00470   0.00480  -3.13698
    D7       -3.14124   0.00014   0.00000   0.00318   0.00331  -3.13793
    D8       -0.00010  -0.00011   0.00000  -0.00229  -0.00214  -0.00224
    D9       -0.00099  -0.00026   0.00000  -0.00595  -0.00609  -0.00708
   D10        3.14093   0.00083   0.00000   0.01874   0.01888  -3.12338
   D11       -3.14120  -0.00041   0.00000  -0.00950  -0.00953   3.13245
   D12        0.00072   0.00069   0.00000   0.01518   0.01544   0.01615
   D13       -2.10010   0.00232   0.00000   0.01521   0.01464  -2.08545
   D14       -0.00570   0.00010   0.00000   0.00657   0.00665   0.00095
   D15        2.08869  -0.00203   0.00000  -0.00507  -0.00473   2.08396
   D16        1.04012   0.00245   0.00000   0.01868   0.01821   1.05832
   D17        3.13451   0.00023   0.00000   0.01004   0.01022  -3.13846
   D18       -1.05428  -0.00191   0.00000  -0.00161  -0.00117  -1.05545
   D19        0.00060   0.00067   0.00000   0.01518   0.01533   0.01592
   D20       -3.14153   0.00050   0.00000   0.01082   0.01100  -3.13053
   D21       -3.14132  -0.00042   0.00000  -0.00950  -0.00951   3.13235
   D22       -0.00026  -0.00059   0.00000  -0.01386  -0.01384  -0.01411
   D23       -2.43877  -0.00183   0.00000  -0.04703  -0.04661  -2.48538
   D24        0.70315  -0.00074   0.00000  -0.02236  -0.02278   0.68038
   D25        0.00023  -0.00051   0.00000  -0.01169  -0.01153  -0.01130
   D26       -3.14158  -0.00014   0.00000  -0.00340  -0.00324   3.13836
   D27       -3.14083  -0.00034   0.00000  -0.00734  -0.00726   3.13510
   D28        0.00054   0.00003   0.00000   0.00095   0.00104   0.00158
   D29       -1.54637   0.00010   0.00000   0.01662   0.01654  -1.52983
   D30        0.54803   0.00099   0.00000   0.02584   0.02594   0.57397
   D31        2.64242   0.00074   0.00000   0.02325   0.02326   2.66568
   D32        1.59469  -0.00007   0.00000   0.01226   0.01216   1.60686
   D33       -2.59410   0.00082   0.00000   0.02149   0.02157  -2.57253
   D34       -0.49970   0.00057   0.00000   0.01889   0.01889  -0.48081
   D35       -0.00066  -0.00005   0.00000  -0.00098  -0.00081  -0.00147
   D36        3.14138   0.00019   0.00000   0.00450   0.00464  -3.13716
   D37        3.14116  -0.00042   0.00000  -0.00927  -0.00913   3.13203
   D38        0.00001  -0.00018   0.00000  -0.00379  -0.00368  -0.00367
   D39        2.84025   0.00258   0.00000   0.03788   0.03772   2.87797
   D40       -1.34854   0.00266   0.00000   0.03880   0.03856  -1.30998
   D41        0.74586   0.00360   0.00000   0.05040   0.05042   0.79628
   D42        0.74586  -0.00368   0.00000  -0.01824  -0.01833   0.72753
   D43        2.84025  -0.00360   0.00000  -0.01732  -0.01749   2.82277
   D44       -1.34854  -0.00266   0.00000  -0.00572  -0.00563  -1.35416
   D45       -1.34854   0.00210   0.00000   0.04615   0.04630  -1.30223
   D46        0.74586   0.00218   0.00000   0.04708   0.04714   0.79300
   D47        2.84025   0.00312   0.00000   0.05867   0.05900   2.89926
   D48        1.04308   0.00112   0.00000   0.01486   0.01526   1.05834
   D49        3.13747  -0.00030   0.00000  -0.00264  -0.00264   3.13483
   D50       -1.05132  -0.00168   0.00000  -0.01952  -0.01993  -1.07124
   D51        3.13747   0.00133   0.00000   0.03431   0.03393  -3.11178
   D52       -1.05132  -0.00010   0.00000   0.01682   0.01602  -1.03529
   D53        1.04308  -0.00147   0.00000  -0.00007  -0.00127   1.04181
   D54       -1.05132   0.00181   0.00000   0.00422   0.00542  -1.04590
   D55        1.04308   0.00039   0.00000  -0.01328  -0.01249   1.03059
   D56        3.13748  -0.00098   0.00000  -0.03016  -0.02977   3.10770
   D57       -2.95986  -0.00219   0.00000  -0.03094  -0.03088  -2.99074
   D58       -0.86546  -0.00313   0.00000  -0.04245  -0.04256  -0.90802
   D59        1.22894  -0.00228   0.00000  -0.03201  -0.03188   1.19706
   D60        1.22894  -0.00234   0.00000  -0.04409  -0.04424   1.18469
   D61       -2.95985  -0.00328   0.00000  -0.05560  -0.05592  -3.01577
   D62       -0.86546  -0.00243   0.00000  -0.04516  -0.04524  -0.91070
   D63       -0.86546   0.00380   0.00000   0.02124   0.02143  -0.84403
   D64        1.22894   0.00286   0.00000   0.00973   0.00975   1.23869
   D65       -2.95986   0.00371   0.00000   0.02017   0.02043  -2.93942
         Item               Value     Threshold  Converged?
 Maximum Force            0.031602     0.000450     NO 
 RMS     Force            0.007348     0.000300     NO 
 Maximum Displacement     0.337754     0.001800     NO 
 RMS     Displacement     0.076352     0.001200     NO 
 Predicted change in Energy=-1.340942D-02
 GradGradGradGradGradGradGradGradGradGradGradGradGradGradGradGradGradGrad

                          Input orientation:                          
 ---------------------------------------------------------------------
 Center     Atomic      Atomic             Coordinates (Angstroms)
 Number     Number       Type             X           Y           Z
 ---------------------------------------------------------------------
      1          6           0        1.725111    0.268503    0.005129
      2          6           0        3.127572    0.206568    0.007826
      3          6           0        3.808265    1.443160    0.008856
      4          6           0        3.140650    2.678319   -0.001051
      5          6           0        1.747770    2.694060    0.006980
      6          6           0        1.055043    1.491168    0.010858
      7          1           0        1.136674   -0.635414    0.005041
      8          1           0        1.212122    3.639009    0.002581
      9          6           0        3.916609    3.989468   -0.013968
     10          1           0        4.152992    4.312855    1.005988
     11          1           0        4.850587    3.879074   -0.569445
     12          1           0        3.323206    4.772690   -0.489570
     13          6           0        3.906030   -1.151680    0.006863
     14          6           0        4.790930   -1.251937    1.283971
     15          1           0        5.121131   -2.286122    1.425957
     16          1           0        5.671878   -0.616557    1.204067
     17          1           0        4.229374   -0.951670    2.173825
     18          6           0        2.974036   -2.388206    0.001339
     19          1           0        2.336189   -2.407925   -0.886180
     20          1           0        3.585214   -3.294639   -0.006032
     21          1           0        2.340305   -2.418691    0.891815
     22          6           0        4.788739   -1.236816   -1.269399
     23          1           0        5.216293   -2.241116   -1.357541
     24          1           0        4.194789   -1.040229   -2.167315
     25          1           0        5.604783   -0.515604   -1.232665
     26          8           0        5.199602    1.443989   -0.010674
     27          1           0        5.497259    2.172109    0.555759
     28         17           0       -0.707296    1.510631    0.014212
 ---------------------------------------------------------------------
                    Distance matrix (angstroms):
                    1          2          3          4          5
     1  C    0.000000
     2  C    1.403830   0.000000
     3  C    2.391519   1.411561   0.000000
     4  C    2.794816   2.471802   1.404075   0.000000
     5  C    2.425663   2.844551   2.410476   1.392992   0.000000
     6  C    1.394250   2.438357   2.753641   2.399838   1.388105
     7  H    1.078575   2.161623   3.384949   3.872567   3.385091
     8  H    3.409321   3.930728   3.400257   2.154567   1.086216
     9  C    4.318403   3.864375   2.548715   1.523612   2.526338
    10  H    4.822147   4.348495   3.057492   2.170408   3.066530
    11  H    4.809881   4.097479   2.711927   2.165357   3.371053
    12  H    4.804824   4.597298   3.401394   2.158325   2.655045
    13  C    2.602562   1.565514   2.596681   3.905734   4.409966
    14  C    3.653276   2.553927   3.139282   4.452147   5.144164
    15  H    4.480828   3.492689   4.199921   5.532118   6.180233
    16  H    4.218738   2.929508   3.023907   4.326156   5.271795
    17  H    3.530354   2.692032   3.255707   4.369465   4.913748
    18  C    2.935631   2.599320   3.921142   5.069264   5.228115
    19  H    2.886368   2.874214   4.218880   5.224987   5.212890
    20  H    4.019464   3.531016   4.743069   5.989481   6.264254
    21  H    2.895805   2.879793   4.224738   5.236150   5.222476
    22  C    3.643655   2.544432   3.126905   4.433191   5.131123
    23  H    4.510367   3.495445   4.174143   5.509010   6.184540
    24  H    3.540001   2.724829   3.324507   4.430746   4.965922
    25  H    4.147145   2.863027   2.933531   4.217815   5.168676
    26  O    3.667983   2.413475   1.391474   2.400613   3.671257
    27  H    4.260987   3.127140   1.919159   2.473842   3.825214
    28  Cl   2.731221   4.050534   4.516068   4.021245   2.725418
                    6          7          8          9         10
     6  C    0.000000
     7  H    2.128156   0.000000
     8  H    2.153592   4.275089   0.000000
     9  C    3.798773   5.396103   2.727150   0.000000
    10  H    4.306912   5.880938   3.179561   1.095794   0.000000
    11  H    4.521614   5.873992   3.690971   1.092271   1.776736
    12  H    4.020370   5.854327   2.446247   1.091678   1.771070
    13  C    3.887517   2.817066   5.496167   5.141201   5.560610
    14  C    4.806485   3.920376   6.194447   5.470047   5.608132
    15  H    5.727434   4.540896   7.239718   6.550366   6.682826
    16  H    5.213580   4.691065   6.280352   5.077405   5.161913
    17  H    4.552171   3.790572   5.906982   5.412865   5.393042
    18  C    4.328068   2.539329   6.279463   6.446969   6.877752
    19  H    4.201064   2.318385   6.214405   6.647189   7.214566
    20  H    5.413501   3.614823   7.328513   7.291646   7.695487
    21  H    4.208917   2.327052   6.225693   6.661057   6.972272
    22  C    4.798066   3.914519   6.179303   5.445252   6.031617
    23  H    5.754864   4.591100   7.242871   6.504963   7.047795
    24  H    4.583712   3.772940   5.958189   5.478334   6.223111
    25  H    5.125779   4.637916   6.171070   4.962946   5.516636
    26  O    4.144883   4.564158   4.551734   2.850535   3.218600
    27  H    4.527017   5.215379   4.562916   2.475043   2.567597
    28  Cl   1.762449   2.829456   2.866058   5.246515   5.697234
                   11         12         13         14         15
    11  H    0.000000
    12  H    1.771389   0.000000
    13  C    5.151001   5.973632   0.000000
    14  C    5.455821   6.449480   1.556954   0.000000
    15  H    6.485713   7.531839   2.185694   1.094866   0.000000
    16  H    4.902098   6.117896   2.199516   1.089110   1.772006
    17  H    5.589949   6.378331   2.200064   1.094233   1.770678
    18  C    6.567042   7.186191   1.548431   2.497470   2.578754
    19  H    6.778560   7.258976   2.200018   3.474424   3.621700
    20  H    7.306214   8.086053   2.166878   2.700091   2.329536
    21  H    6.935319   7.388523   2.199989   2.742383   2.834762
    22  C    5.163923   6.234587   1.554113   2.553415   2.911438
    23  H    6.181550   7.316462   2.182947   2.852542   2.785488
    24  H    5.213713   6.112652   2.196100   3.508786   3.914328
    25  H    4.507979   5.807222   2.196994   2.745541   3.230622
    26  O    2.522633   3.851033   2.900195   3.018465   3.997974
    27  H    2.144295   3.547146   3.725704   3.571174   4.557910
    28  Cl   6.069616   5.209584   5.326418   6.282878   7.097811
                   16         17         18         19         20
    16  H    0.000000
    17  H    1.770183   0.000000
    18  C    3.444364   2.891229   0.000000
    19  H    4.324922   3.881811   1.093128   0.000000
    20  H    3.604251   3.264387   1.093258   1.766631   0.000000
    21  H    3.800601   2.713721   1.093386   1.778033   1.767261
    22  C    2.698645   3.499998   2.496721   2.744695   2.698000
    23  H    3.067342   3.886801   2.626005   2.923184   2.365778
    24  H    3.705065   4.342181   2.830254   2.639374   3.181995
    25  H    2.439745   3.699469   3.456910   3.792708   3.647783
    26  O    2.438132   3.384163   4.431591   4.878820   5.006082
    27  H    2.868354   3.739474   5.241231   5.748762   5.818665
    28  Cl   6.828948   5.924319   5.362210   5.042677   6.443343
                   21         22         23         24         25
    21  H    0.000000
    22  C    3.473111   0.000000
    23  H    3.655468   1.095075   0.000000
    24  H    3.833738   1.094384   1.772381   0.000000
    25  H    4.334971   1.089690   1.773107   1.771125   0.000000
    26  O    4.889822   2.989969   3.923561   3.439781   2.344662
    27  H    5.581643   3.931154   4.818321   4.408024   3.230143
    28  Cl   5.049518   6.277142   7.144663   5.941076   6.745566
                   26         27         28
    26  O    0.000000
    27  H    0.969332   0.000000
    28  Cl   5.907326   6.263172   0.000000
 Stoichiometry    C11H15ClO
 Framework group  C1[X(C11H15ClO)]
 Deg. of freedom    78
 Full point group                 C1      NOp   1
 Largest Abelian subgroup         C1      NOp   1
 Largest concise Abelian subgroup C1      NOp   1
                         Standard orientation:                         
 ---------------------------------------------------------------------
 Center     Atomic      Atomic             Coordinates (Angstroms)
 Number     Number       Type             X           Y           Z
 ---------------------------------------------------------------------
      1          6           0        0.518412   -1.070794    0.002475
      2          6           0       -0.595510   -0.216442    0.001786
      3          6           0       -0.321699    1.168308    0.002315
      4          6           0        0.983821    1.684983    0.011823
      5          6           0        2.060693    0.801427    0.001776
      6          6           0        1.817764   -0.565244   -0.003663
      7          1           0        0.387855   -2.141437    0.001291
      8          1           0        3.078534    1.180702    0.005832
      9          6           0        1.232623    3.188072    0.026472
     10          1           0        1.258691    3.589050   -0.992990
     11          1           0        0.446793    3.703358    0.583254
     12          1           0        2.191090    3.405743    0.501573
     13          6           0       -2.065057   -0.756128    0.003254
     14          6           0       -2.808279   -0.262276   -1.272614
     15          1           0       -3.726266   -0.841820   -1.414597
     16          1           0       -3.074350    0.790686   -1.191137
     17          1           0       -2.185857   -0.392247   -2.163144
     18          6           0       -2.146361   -2.302419    0.006853
     19          1           0       -1.669812   -2.728800    0.893435
     20          1           0       -3.197271   -2.603646    0.014693
     21          1           0       -1.681336   -2.732110   -0.884557
     22          6           0       -2.794795   -0.255392    1.280757
     23          1           0       -3.767937   -0.749746    1.369057
     24          1           0       -2.212771   -0.487899    2.177900
     25          1           0       -2.956063    0.821723    1.245541
     26          8           0       -1.386725    2.063548    0.023867
     27          1           0       -1.146971    2.813312   -0.541797
     28         17           0        3.179988   -1.683518   -0.009569
 ---------------------------------------------------------------------
 Rotational constants (GHZ):           0.8865746           0.5270426           0.3581943
 Standard basis: 6-31G(d) (6D, 7F)
 There are   229 symmetry adapted cartesian basis functions of A   symmetry.
 There are   229 symmetry adapted basis functions of A   symmetry.
   229 basis functions,   448 primitive gaussians,   229 cartesian basis functions
    53 alpha electrons       53 beta electrons
       nuclear repulsion energy       900.5661852935 Hartrees.
 NAtoms=   28 NActive=   28 NUniq=   28 SFac= 1.00D+00 NAtFMM=   60 NAOKFM=F Big=F
 Integral buffers will be    131072 words long.
 Raffenetti 2 integral format.
 Two-electron integral symmetry is turned on.
 ------------------------------------------------------------------------------
 Polarizable Continuum Model (PCM)
 =================================
 Model                : PCM.
 Atomic radii         : SMD-Coulomb.
 Polarization charges : Total charges.
 Charge compensation  : None.
 Solution method      : On-the-fly selection.
 Cavity type          : VdW (van der Waals Surface) (Alpha=1.000).
 Cavity algorithm     : GePol (No added spheres)
                        Default sphere list used, NSphG=   28.
                        Lebedev-Laikov grids with approx.  5.0 points / Ang**2.
                        Smoothing algorithm: York/Karplus (Gamma=1.0000).
                        Polarization charges: spherical gaussians, with
                                              point-specific exponents (IZeta= 3).
                        Self-potential: point-specific (ISelfS= 7).
                        Self-field    : sphere-specific E.n sum rule (ISelfD= 2).
 1st derivatives      : Analytical E(r).r(x)/FMM algorithm (CHGder, D1EAlg=3).
                        Cavity 1st derivative terms included.
 Solvent              : Toluene, Eps=   2.374100 Eps(inf)=   2.238315
 ------------------------------------------------------------------------------
 ------------------------------------------------------------------------------
[...]
 37,-0.00138986,-0.00067774,0.00122348,-0.13842531,0.00011064,0.2337271
 0,0.00035604,0.00109912,0.00042770,-0.01457020,0.00869159,0.01247974,0
 .00263933,-0.00140245,-0.00055885,-0.00084485,0.00025808,-0.00049610,0
 .00027784,0.00007419,0.00004119,-0.00017252,0.00001875,-0.00078733,0.0
 0000542,-0.00009419,0.00054781,-0.00001878,0.00001518,0.00007690,-0.00
 000124,-0.00001369,0.00004439,0.00000704,-0.00001268,-0.00004030,0.000
 01386,-0.00004134,0.00003240,-0.00004273,-0.00001497,0.00000649,-0.105
 70917,-0.00040216,0.04392660,0.01111553,-0.00136357,-0.01275002,0.0004
 8330,-0.00008037,-0.00037930,0.00054194,0.00003753,-0.00042727,-0.0017
 9020,0.00041305,-0.00507188,-0.02050559,-0.00519417,0.02218900,0.00067
 095,0.00093464,0.00071035,0.00074769,0.00170264,-0.00019047,-0.0028074
 6,-0.00293672,0.00028526,0.54491145,-0.00009065,-0.00280587,-0.0002748
 7,0.01960631,-0.00482735,-0.02245163,0.00251190,-0.00106459,-0.0003350
 9,-0.00054924,0.00107213,0.00074506,0.00106174,-0.00021075,-0.00004596
 ,-0.00021695,-0.00068653,0.00137095,0.00020261,-0.00003852,-0.00066492
 ,0.00000124,-0.00000666,-0.00006783,0.00003608,0.00007444,-0.00013323,
 -0.00003665,-0.00006705,-0.00001194,-0.00003721,-0.00001793,0.00002822
 ,-0.00000555,-0.00001867,-0.00001181,0.00419427,-0.07647586,-0.0087317
 7,-0.00144440,0.00085207,0.00064649,-0.00023381,0.00001161,0.00103235,
 0.00030788,-0.00004067,-0.00067968,0.00013885,0.00011630,0.00076126,-0
 .01808251,-0.00085822,0.02143844,0.00062785,0.00072286,0.00027268,-0.0
 0088022,0.00041291,0.00100816,-0.00439695,-0.00431280,0.00108103,0.020
 02640,0.58777908,-0.00119931,0.00130194,-0.00048906,0.00403963,-0.0073
 4760,-0.00063341,-0.00162281,0.00116999,0.00032298,0.00091870,-0.00047
 902,0.00003853,-0.00071695,0.00020438,0.00004419,0.00032530,0.00016627
 ,-0.00030458,-0.00001278,-0.00018843,0.00028531,-0.00000569,0.00002645
 ,-0.00001668,-0.00009828,0.00003514,-0.00001127,0.00003043,0.00004141,
 0.00001364,0.00004378,0.00004217,-0.00001053,0.00001707,0.00006012,0.0
 0000591,0.04145939,-0.00200060,-0.13212828,0.01485788,-0.00058940,-0.0
 3299574,0.00116679,-0.00053502,0.00141092,0.00103104,0.00002808,0.0018
 1473,-0.00283776,0.00026364,-0.00393908,0.00605994,0.00456534,-0.00348
 653,-0.00139401,-0.00098455,0.00063447,-0.00018996,-0.00067699,-0.0000
 2858,-0.00120745,-0.00082857,0.00085445,0.05951175,-0.01257784,0.49722
 461,0.00019743,0.00062063,0.00022084,-0.00170417,-0.00057845,0.0036179
 9,-0.00183713,0.00009169,0.00002271,0.00032171,-0.00028247,-0.00008539
 ,-0.00039870,0.00004420,0.00001373,0.00017599,0.00029889,-0.00032060,-
 0.00004879,-0.00000017,0.00015422,-0.00000226,0.00001294,0.00000708,-0
 .00003118,-0.00002093,0.00000509,0.00002358,0.00002911,0.00001524,0.00
 001962,0.00002529,-0.00001200,0.00000790,0.00002378,0.00000627,-0.0104
 9366,0.01689108,-0.00018289,0.00052303,-0.00017961,-0.00120992,0.00053
 861,-0.00026696,0.00023379,0.00004122,-0.00007463,0.00002430,-0.000037
 35,-0.00025971,-0.00010764,0.00013267,0.00137267,-0.00054306,-0.000129
 05,-0.00001447,0.00001867,-0.00016229,-0.00079169,0.00045846,0.0003593
 9,-0.00022746,-0.00018035,-0.10594708,0.10658601,-0.00288052,0.1128160
 1,-0.00039291,-0.00017002,-0.00023844,0.00056800,0.00118195,-0.0009143
 0,-0.00068836,0.00019786,0.00011763,0.00001263,0.00004218,0.00013076,0
 .00012204,0.00001377,-0.00002575,-0.00009883,-0.00012952,0.00001973,0.
 00003573,0.00006994,0.00003058,0.00002166,-0.00001598,-0.00000733,0.00
 004959,0.00000139,0.00000814,-0.00002311,-0.00000616,0.00000384,-0.000
 01688,0.00000173,-0.00000654,0.00001330,-0.00002289,0.00000231,0.00084
 949,-0.00354624,0.00061341,-0.00010707,0.00001342,0.00052554,-0.000244
 62,0.00040322,-0.00045536,0.00006209,-0.00011164,-0.00001572,-0.000229
 41,0.00026922,-0.00011374,-0.00099179,0.00026824,0.00075303,-0.0000015
 9,-0.00001545,-0.00007364,-0.00018259,0.00064000,0.00022644,-0.0000605
 5,0.00035025,-0.00014655,0.10756254,-0.25198084,0.00400981,-0.11887267
 ,0.27293432,0.00023632,-0.00102068,0.00002463,0.00283711,0.00106890,-0
 .00365834,0.00070612,-0.00031368,0.00016265,-0.00025521,0.00023658,0.0
 0014707,0.00035037,-0.00007852,-0.00003952,-0.00006897,-0.00018964,0.0
 0037366,0.00002774,0.00001165,-0.00020967,0.00000640,-0.00001271,-0.00
 001343,0.00004229,0.00000431,-0.00001955,-0.00001791,-0.00002108,0.000
 00159,-0.00002799,-0.00002041,0.00000321,-0.00000157,-0.00001962,-0.00
 000237,0.01303274,-0.02377851,-0.00122648,0.00033653,-0.00104745,0.001
 36933,-0.00019281,0.00044591,-0.00033893,-0.00009914,-0.00004467,-0.00
 009803,-0.00008616,0.00022952,0.00036562,-0.00054304,-0.00100775,0.000
 69416,0.00000466,0.00018978,-0.00001190,0.00006913,0.00050557,0.000152
 18,-0.00036408,-0.00010032,0.00000056,-0.00368501,0.00500127,-0.048687
 39,0.00010178,-0.00534816,0.05136001,0.00005885,-0.00020557,-0.0001840
 1,0.00120109,-0.00038114,0.00035990,-0.00031638,-0.00005341,-0.0001005
 9,0.00012292,0.00001514,0.00001624,0.00003394,-0.00007115,0.00001311,-
 0.00007184,0.00002231,0.00002859,-0.00001987,0.00001204,0.00000736,0.0
 0000776,-0.00000645,-0.00000086,0.00002338,0.00000752,-0.00001255,-0.0
 0000980,0.00000235,0.00001249,-0.00001747,-0.00000817,-0.00000818,0.00
 000781,-0.00000566,0.00000040,0.01029782,-0.00121609,0.01696802,-0.002
 17320,0.00016410,0.00292307,-0.00004564,-0.00023489,0.00006559,-0.0000
 3876,0.00014665,0.00009744,0.00084396,-0.00012769,0.00109854,0.0011756
 4,0.00040977,0.00045049,-0.00008878,-0.00006439,-0.00003194,-0.0000693
 4,-0.00011086,-0.00003538,0.00022505,0.00019488,-0.00013163,-0.1301185
 8,0.00683019,-0.12168074,-0.00853329,-0.00036326,-0.01179633,0.1389360
 2,0.00004975,0.00012158,0.00005824,-0.00054102,0.00028735,-0.00073486,
 -0.00051915,-0.00005139,-0.00013446,0.00009832,-0.00010156,0.00001592,
 -0.00002912,0.00000007,-0.00001635,0.00007767,-0.00000464,0.00001839,-
 0.00001547,0.00002499,-0.00001500,0.00000481,-0.00000042,0.00000486,0.
 00002217,-0.00001498,-0.00001248,0.00000202,0.00001323,0.00001543,-0.0
 0001164,-0.00000197,-0.00000942,0.00000506,-0.00000079,0.00000042,-0.0
 0169577,-0.00164257,-0.00284278,0.00040632,0.00011979,-0.00023008,-0.0
 0024883,0.00026971,-0.00024201,0.00019806,0.00004830,0.00024180,-0.000
 11748,0.00057052,-0.00013343,0.00035554,-0.00003383,0.00075586,-0.0003
 1849,0.00017135,0.00017317,0.00007712,0.00001138,0.00010514,0.00002550
 ,-0.00010974,-0.00016791,0.00647063,-0.05070250,0.01086265,0.01602885,
 -0.00019343,0.02533890,-0.00790712,0.04879050,0.00038605,-0.00025095,0
 .00027768,-0.00111135,0.00137180,0.00068237,-0.00046885,-0.00030519,0.
 00004209,-0.00004576,-0.00008515,0.00002235,0.00000138,-0.00001753,-0.
 00000973,0.00007932,0.00003534,-0.00007676,0.00003830,0.00001295,-0.00
 003484,0.00000503,-0.00000105,-0.00000331,0.00003419,-0.00002810,-0.00
 001174,0.00000804,0.00001480,0.00001334,-0.00001330,0.00000098,-0.0000
 0351,0.00000075,-0.00000870,0.00000105,-0.01482656,0.00127909,-0.02178
 766,0.00515806,-0.00073958,-0.00355974,0.00008705,0.00010224,0.0003734
 8,0.00001150,-0.00005350,0.00024236,-0.00097674,0.00013585,-0.00170802
 ,-0.00161978,-0.00067546,0.00066698,0.00082425,0.00051808,0.00047895,0
 .00009773,0.00004100,-0.00003175,0.00019531,-0.00017212,0.00037943,-0.
 11965570,0.01066698,-0.22924359,0.00028749,0.00049335,0.00057037,0.130
 40849,-0.01147452,0.25104748,-0.00021760,0.00013252,-0.00009381,0.0006
 1910,-0.00062909,-0.00034319,-0.00253176,0.00046920,0.00044015,0.00020
 942,0.00000469,0.00009439,-0.00000044,0.00003256,-0.00000501,0.0000266
 1,-0.00012486,0.00002461,0.00012618,-0.00005151,0.00001515,0.00003066,
 0.00000046,-0.00002221,0.00005201,-0.00001631,0.00002285,-0.00000608,0
 .00003290,0.00002087,0.00000035,0.00003125,-0.00002624,0.00003270,-0.0
 0000834,0.00000825,-0.01310890,-0.01348618,-0.00073297,0.00057372,0.00
 027907,-0.00108950,0.00003733,0.00006088,0.00010586,0.00051772,-0.0000
 0999,0.00036604,-0.00003294,0.00020949,-0.00002395,-0.00190613,0.00151
 194,0.00389507,0.00029205,0.00029264,-0.00001706,0.00024026,-0.0001897
 5,-0.00005071,-0.00061942,-0.00125919,0.00025572,-0.17817491,-0.134859
 11,0.00364255,0.01328076,0.01233934,-0.00032620,-0.01176642,-0.0127629
 6,0.00071950,0.19070608,0.00007516,-0.00005293,0.00002317,-0.00014809,
 0.00050223,0.00028333,0.00159771,0.00001991,-0.00025318,-0.00015492,-0
 .00000010,0.00010862,-0.00006282,-0.00000926,-0.00005927,0.00004496,0.
 00011403,-0.00000022,-0.00001324,0.00000246,0.00000445,-0.00002089,0.0
 0001209,-0.00000656,-0.00003726,-0.00003770,-0.00000946,0.00003138,-0.
 00000252,0.00001059,0.00001621,-0.00000042,0.00000544,-0.00000774,0.00
 001837,0.00000619,0.00348112,0.00280026,0.00051135,0.00003755,-0.00004
 324,-0.00003320,-0.00007661,-0.00011190,0.00004103,-0.00001843,0.00022
 174,0.00020538,0.00014433,0.00004894,0.00005976,0.00021634,0.00047948,
 0.00000684,-0.00001808,-0.00013746,-0.00015123,0.00001150,0.00045653,-
 0.00012299,-0.00002645,0.00043945,-0.00022857,-0.13773647,-0.19528394,
 0.00600789,-0.01972379,-0.01945545,-0.00002367,0.00338002,0.00302868,-
 0.00069691,0.14977967,0.21108302,0.00017676,-0.00005383,0.00006226,-0.
 00113685,0.00028288,0.00067581,0.00237130,0.00001572,0.00013315,-0.000
 37182,-0.00003257,-0.00000030,-0.00002588,0.00001475,-0.00003767,-0.00
 002796,0.00008647,-0.00001200,-0.00009229,0.00005411,-0.00004689,-0.00
 003458,0.00000305,0.00000789,-0.00005851,-0.00001616,0.00001891,0.0000
 1683,-0.00002554,-0.00002873,0.00002295,-0.00000850,0.00002122,-0.0000
 2164,0.00001038,-0.00000512,0.01735199,0.02091613,-0.00025531,0.000367
 90,0.00068718,0.00178545,-0.00001812,0.00001863,-0.00009393,-0.0003112
 7,-0.00020284,-0.00062354,-0.00011006,-0.00023270,0.00023594,0.0029824
 0,-0.00114272,-0.00470212,0.00022869,-0.00007438,0.00024136,-0.0002391
 3,-0.00024204,-0.00010766,0.00154413,0.00133521,0.00009279,0.00142819,
 0.00342161,-0.04979998,0.00090451,0.00114509,-0.00083341,-0.01822779,-
 0.02147399,0.00169675,-0.00532548,-0.00326209,0.05231909,0.00415163,-0
 .00075749,-0.00001946,-0.03877526,-0.01216514,-0.00104959,-0.29461843,
 0.03442950,-0.00601320,-0.04952849,0.01030754,-0.00133730,0.00329269,0
 .00214509,-0.00009524,-0.00077702,0.00071463,0.00001061,-0.00100281,0.
 00008873,-0.00002963,-0.00158006,-0.00001839,-0.00003817,0.00120468,-0
 .00830344,0.00013734,0.00195423,0.00218442,0.00172622,0.00206259,0.002
 20794,-0.00163751,0.00036198,-0.00067983,-0.00001103,-0.00035559,0.004
 78345,0.00008228,-0.00059126,-0.00218174,-0.00102892,0.00096484,0.0001
 6896,0.00063345,0.00099174,-0.00050074,0.00091847,0.00020332,0.0002882
 9,-0.00026432,0.00083230,-0.00004388,0.00001153,0.00009829,0.00028461,
 0.00022296,0.00015936,-0.00047510,0.00000341,0.00011586,0.00028820,-0.
 00022027,-0.00073894,-0.00212292,0.00101813,0.00101691,0.00020389,-0.0
 0058252,0.00019820,0.00028778,0.00027557,0.00109705,-0.00039226,-0.000
 82890,0.46138859,0.00281072,-0.00917000,0.00003942,-0.04543544,0.00338
 294,-0.00108455,-0.01902072,-0.10913332,-0.00059455,0.03957424,0.00138
 084,0.00093193,-0.00329979,-0.00803144,-0.00011045,0.00005798,0.004314
 69,0.00001226,-0.00182050,0.00023629,-0.00004386,0.00156010,0.00021214
 ,0.00003803,0.00397349,-0.00186781,0.00010272,0.00013758,0.00121008,0.
 00089516,0.00018352,0.00121522,-0.00088872,0.00042459,0.00048215,0.000
 00875,0.00031085,0.00238587,0.00001886,0.00159623,-0.00172138,0.002476
 63,-0.00064677,-0.00066936,-0.00006284,-0.00163784,-0.00359165,0.00109
 973,-0.00039211,-0.00050404,0.00009960,-0.00002685,0.00035541,-0.00000
 068,-0.00004352,0.00005069,-0.00001908,0.00005694,0.00008008,0.0000015
 4,-0.00004379,0.00005087,0.00001688,0.00170491,-0.00170736,-0.00240079
 ,-0.00064711,-0.00066687,0.00002962,-0.00038609,-0.00050328,-0.0001201
 1,-0.00157788,-0.00357914,-0.00118649,0.12701989,0.57023352,-0.0000135
 1,-0.00004651,0.00491418,-0.00111833,-0.00029160,0.00428236,-0.0061182
 6,0.00067744,-0.03934129,-0.00128243,0.00023401,0.00757402,-0.00010664
 ,0.00002049,0.00747156,0.00000806,0.00002753,-0.00112121,-0.00003328,0
 .00000205,0.00023760,-0.00003452,0.,-0.00000200,0.00016154,-0.00019083
 ,-0.00519288,0.00060835,0.00036939,0.00035343,-0.00052745,-0.00026507,
 0.00024227,-0.00000849,-0.00001658,0.00075157,0.00007447,0.00012526,-0
 .00342944,-0.00207418,0.00125820,-0.00068034,0.00050959,0.00069658,-0.
 00003326,0.00137516,0.00218747,-0.00080279,0.00016998,0.00001615,-0.00
 001761,0.00001127,-0.00000105,0.00035498,0.00014726,0.00006356,0.00008
 174,0.00000441,-0.00001113,-0.00002163,-0.00014574,-0.00004998,0.00006
 398,0.00207768,-0.00136517,-0.00054616,-0.00046182,-0.00068996,-0.0000
 8802,-0.00016082,-0.00000400,-0.00001307,-0.00129019,-0.00221837,-0.00
 092030,0.01059422,0.00413591,0.02755752,0.00035096,-0.00219599,-0.0000
 3336,-0.00694413,0.00296908,-0.00019747,-0.02363985,-0.04784938,-0.000
 57448,0.00023689,-0.00175792,-0.00000571,-0.00065924,-0.00103829,-0.00
 000589,-0.00005736,0.00065927,0.00000102,-0.00045090,0.00012851,-0.000
 00723,0.00031258,0.00000776,0.00000691,0.00046736,0.00072326,-0.000074
 74,0.00013198,0.00112993,0.00069991,0.00014976,0.00105485,-0.00062655,
 0.00062257,-0.00027887,0.00004984,-0.00033314,-0.00003457,0.00000056,-
 0.00012486,0.00028422,-0.00016872,0.00007177,0.00022118,-0.00005656,0.
 00037337,-0.00025357,0.00047556,0.00007348,0.00008288,-0.00004463,-0.0
 0005083,-0.00001674,-0.00000112,0.00002095,0.00001134,0.00000992,0.000
 00349,0.00003823,0.00000022,0.00002084,0.00001054,-0.00000865,-0.00014
 713,0.00029369,0.00017871,0.00007325,0.00022414,0.00006194,0.00007559,
 0.00008776,0.00004934,0.00040926,-0.00024276,-0.00046736,-0.08720176,-
 0.10421913,-0.00226028,0.11583447,-0.00057503,-0.00015062,-0.00001710,
 0.00255682,0.00238988,0.00006265,-0.00304419,-0.00040593,-0.00006573,0
 .00611103,0.00046075,0.00014575,-0.00020379,-0.00074393,-0.00000522,0.
 00018879,-0.00027498,0.00000399,0.00004297,0.00010145,0.00000148,0.000
 31047,0.00010771,0.00000761,0.00140465,0.00218551,0.00002868,0.0006129
 2,-0.00198637,-0.00176467,0.00052748,-0.00200200,0.00179098,-0.0005869
 0,-0.00030752,-0.00001107,0.00044067,-0.00002135,0.00001100,0.00022218
 ,0.00017011,0.00027775,-0.00011456,-0.00005410,-0.00001931,-0.00022651
 ,-0.00051241,0.00001092,-0.00003685,-0.00009556,0.00002889,-0.00009186
 ,-0.00001221,-0.00000219,0.00000709,-0.00001486,-0.00000412,-0.0000055
 5,0.00004254,-0.00000004,0.00000682,-0.00001496,0.00000442,0.00023431,
 0.00017188,-0.00026494,-0.00011506,-0.00005397,0.00001370,-0.00003509,
 -0.00009506,-0.00003089,-0.00022472,-0.00051151,-0.00002436,-0.1576672
 3,-0.44470135,-0.00466299,0.14984803,0.44634904,-0.00002982,-0.0000556
 7,0.00157855,-0.00019872,0.00007133,0.00157626,-0.00048050,-0.00113056
 ,-0.00362570,0.00001025,-0.00004194,0.00033328,-0.00000464,-0.00002546
 ,-0.00050199,0.00000003,0.00001595,-0.00004882,-0.00000712,0.00000350,
 -0.00014320,0.00000739,0.00000034,0.00002820,-0.00007530,0.00001414,0.
 00369901,-0.00026214,-0.00162612,-0.00132026,0.00033431,0.00167605,-0.
 00132352,0.00004981,-0.00000439,-0.00150605,0.00000138,-0.00000034,-0.
 00035897,-0.00028403,0.00021837,-0.00033352,0.00009100,0.00007026,-0.0
 0002162,0.00028066,0.00018257,0.00021951,0.00009296,0.00010796,-0.0000
 1552,-0.00000124,-0.00000040,-0.00000710,-0.00001104,-0.00001714,-0.00
 000493,0.00000014,0.00000101,-0.00000247,0.00001229,0.00001762,-0.0000
 0472,0.00029414,-0.00020249,-0.00031308,-0.00008699,-0.00005978,-0.000
 02319,-0.00008872,-0.00010413,-0.00001814,-0.00027249,-0.00019698,0.00
 018285,-0.00237089,-0.00339124,-0.00120018,0.00298822,0.00447483,0.003
 20604,-0.03719558,-0.00031745,-0.00094523,0.00191614,0.00406711,-0.000
 05509,0.00290984,-0.00021368,0.00008525,0.00151276,-0.00391886,-0.0000
 8286,-0.03750680,0.00181559,-0.00094724,-0.14271991,-0.00093655,-0.002
 98172,0.00154732,-0.00075602,0.00009659,0.00139187,0.00039229,0.000093
 70,-0.00090540,0.00108002,-0.00002944,-0.00041270,-0.00037427,0.000055
 81,-0.00040697,-0.00036904,-0.00007772,0.00016428,-0.00012216,0.000004
 80,-0.00065701,-0.00202869,-0.00002637,-0.00020421,0.00053271,0.000447
 75,-0.00019247,0.00021061,-0.00024344,0.00010878,-0.00013696,0.0001030
 5,0.00006409,-0.00002990,-0.00004804,-0.00034369,0.00008054,-0.0000046
 1,0.00004212,-0.00002206,-0.00001980,-0.00002984,0.00024563,-0.0000009
 4,0.00004200,-0.00002306,0.00002000,-0.00018101,0.00053116,-0.00045481
 ,-0.00020313,0.00020920,0.00023378,0.00006133,-0.00003033,0.00005070,0
 .00011333,-0.00013615,-0.00009801,-0.00492462,-0.00021350,-0.00010604,
 0.00038064,0.00041310,0.00001106,0.21562886,0.02705078,0.00251713,0.00
 064968,-0.00147360,-0.00375827,-0.00005168,-0.00001339,0.00151174,0.00
 000416,0.00146571,-0.00376054,0.00001825,-0.02674966,0.00331299,-0.000
 63972,-0.00044055,-0.03890690,-0.00005137,0.00094395,0.00123897,0.0000
 3023,-0.00071860,0.00099822,-0.00000986,-0.00071867,0.00032364,-0.0000
 1731,-0.00011782,-0.00011046,0.00000952,-0.00011704,-0.00011006,-0.000
 01567,0.00007305,0.00005347,0.00000194,0.00058018,0.00049951,0.0000141
 9,0.00005328,-0.00010654,-0.00008635,0.00002758,-0.00001916,0.00005006
 ,0.00002265,-0.00000171,0.00001411,-0.00000851,-0.00000134,0.00001229,
 0.00000011,0.00007796,0.00000042,-0.00002144,-0.00000071,0.00001713,0.
 00001941,-0.00003179,0.00000035,-0.00002053,-0.00000070,-0.00001828,0.
 00004924,-0.00010715,0.00008845,0.00003002,-0.00001902,-0.00004883,-0.
 00000795,-0.00000131,-0.00001270,0.00002328,-0.00000163,-0.00001300,-0
 .00009476,0.00025622,-0.00000079,0.00011257,-0.00002016,0.00000272,0.0
 0005072,0.03616762,-0.00089059,-0.00000641,0.00213911,-0.00006550,0.00
 008119,0.00454446,0.00008728,-0.00000093,-0.00072040,-0.00007174,-0.00
 011094,0.00463478,-0.00100411,0.00004620,0.00209412,-0.00298172,-0.000
 06411,-0.01864960,0.00009999,-0.00001059,-0.00253938,0.00009146,0.0000
 1690,-0.00247663,-0.00003334,0.00002580,0.00042157,0.00004599,0.000096
 75,0.00001763,-0.00006689,-0.00011513,0.00001125,0.00000521,-0.0000027
 4,-0.00004686,-0.00002145,-0.00004832,0.00028574,0.00002854,-0.0000546
 6,0.00000685,0.00001067,-0.00000568,0.00001460,-0.00000239,0.00000480,
 -0.00000186,-0.00000712,-0.00000610,0.00000442,-0.00000483,0.00000238,
 -0.00014337,0.00001787,-0.00001848,0.00003630,-0.00000137,0.00000578,0
 .00002864,-0.00001765,0.00001726,0.00003642,-0.00003737,0.00007977,-0.
 00001581,-0.00002100,0.00001561,0.00002514,0.00000982,0.00000463,0.000
 00717,0.00000801,-0.00001134,-0.00000652,-0.00010722,-0.00000367,-0.00
 047503,0.00001058,0.00000997,-0.00005072,0.00491887,0.00005206,0.01081
 796\\-0.00000169,0.00000306,-0.00000031,0.00000031,0.00000462,0.000000
 66,-0.00000367,-0.00001269,0.00001078,-0.00000047,0.00000430,0.0000035
 1,0.00000543,0.00000613,-0.00000693,-0.00000638,-0.00000475,0.00000301
 ,0.,0.00000030,-0.00000117,-0.00000043,-0.00000086,0.00000281,0.000007
 64,0.00000341,-0.00000505,0.00000177,-0.00000158,0.00000162,-0.0000017
 5,-0.00000171,0.00000464,0.00000107,-0.00000084,-0.00000114,0.00000276
 ,0.00000091,-0.00000468,-0.00000450,0.00000326,-0.00000166,-0.00000113
 ,-0.00000222,-0.00000077,0.00000044,-0.00000125,-0.00000045,-0.0000021
 2,-0.00000149,0.00000100,0.00000182,0.00000397,-0.00000003,-0.00000267
 ,0.00000099,-0.00000161,-0.00000080,-0.00000060,-0.00000033,-0.0000018
 7,0.00000103,0.00000157,-0.00000187,-0.00000456,0.00000506,-0.00000111
 ,-0.00000241,-0.00000053,-0.00000213,-0.00000115,-0.00000141,-0.000001
 06,-0.00000223,0.00000064,0.00000514,0.00000317,-0.00000717,0.00000291
 ,0.00000035,-0.00000049,0.00000440,0.00000285,-0.00000158\\\@
 The archive entry for this job was punched.


 "WHERE SHALL I START, PLEASE YOUR MAJESTY?" HE ASKED.
 "BEGIN AT THE BEGINNING," THE KING SAID GRAVELY,
 "AND GO ON TILL YOU COME TO THE END: THEN STOP." 

                                      -- LEWIS CARROLL
 Job cpu time:       0 days  0 hours 58 minutes 12.7 seconds.
 Elapsed time:       0 days  0 hours  7 minutes 16.9 seconds.
 File lengths (MBytes):  RWF=    263 Int=      0 D2E=      0 Chk=     13 Scr=      1
 Normal termination of Gaussian 16 at Thu Sep 23 17:54:45 2021.
