 Entering Gaussian System, Link 0=/home/rong/g16/g16
 Input=/home/rong/g16/092321/MeMebz.gjf
 Output=/home/rong/g16/092321/MeMebz.log
 Initial command:
 /home/rong/g16/l1.exe "/tmp/Gau-74887.inp" -scrdir="/tmp/"
 Default is to use a total of   8 processors:
                                8 via shared-memory
                                1 via Linda
 Entering Link 1 = /home/rong/g16/l1.exe PID=     74890.
  
 Copyright (c) 1988-2019, Gaussian, Inc.  All Rights Reserved.
  
 This is part of the Gaussian(R) 16 program.  It is based on
 the Gaussian(R) 09 system (copyright 2009, Gaussian, Inc.),
 the Gaussian(R) 03 system (copyright 2003, Gaussian, Inc.),
 the Gaussian(R) 98 system (copyright 1998, Gaussian, Inc.),
 the Gaussian(R) 94 system (copyright 1995, Gaussian, Inc.),
 the Gaussian 92(TM) system (copyright 1992, Gaussian, Inc.),
 the Gaussian 90(TM) system (copyright 1990, Gaussian, Inc.),
 the Gaussian 88(TM) system (copyright 1988, Gaussian, Inc.),
 the Gaussian 86(TM) system (copyright 1986, Carnegie Mellon
 University), and the Gaussian 82(TM) system (copyright 1983,
 Carnegie Mellon University). Gaussian is a federally registered
 trademark of Gaussian, Inc.
  
 This software contains proprietary and confidential information,
 including trade secrets, belonging to Gaussian, Inc.
  
 This software is provided under written license and may be
 used, copied, transmitted, or stored only in accord with that
 written license.
  
 The following legend is applicable only to US Government
 contracts under FAR:
  
                    RESTRICTED RIGHTS LEGEND
  
 Use, reproduction and disclosure by the US Government is
 subject to restrictions as set forth in subparagraphs (a)
 and (c) of the Commercial Computer Software - Restricted
 Rights clause in FAR 52.227-19.
  
 Gaussian, Inc.
 340 Quinnipiac St., Bldg. 40, Wallingford CT 06492
  
  
 ---------------------------------------------------------------
 Warning -- This program may not be used in any manner that
 competes with the business of Gaussian, Inc. or will provide
 assistance to any competitor of Gaussian, Inc.  The licensee
 of this program is prohibited from giving any competitor of
 Gaussian, Inc. access to this program.  By using this program,
 the user acknowledges that Gaussian, Inc. is engaged in the
 business of creating and licensing software in the field of
 computational chemistry and represents and warrants to the
 licensee that it is not a competitor of Gaussian, Inc. and that
 it will not use this program in any manner prohibited above.
 ---------------------------------------------------------------
  

 Cite this work as:
 Gaussian 16, Revision C.01,
 M. J. Frisch, G. W. Trucks, H. B. Schlegel, G. E. Scuseria, 
 M. A. Robb, J. R. Cheeseman, G. Scalmani, V. Barone, 
 G. A. Petersson, H. Nakatsuji, X. Li, M. Caricato, A. V. Marenich, 
 J. Bloino, B. G. Janesko, R. Gomperts, B. Mennucci, H. P. Hratchian, 
 J. V. Ortiz, A. F. Izmaylov, J. L. Sonnenberg, D. Williams-Young, 
 F. Ding, F. Lipparini, F. Egidi, J. Goings, B. Peng, A. Petrone, 
 T. Henderson, D. Ranasinghe, V. G. Zakrzewski, J. Gao, N. Rega, 
 G. Zheng, W. Liang, M. Hada, M. Ehara, K. Toyota, R. Fukuda, 
 J. Hasegawa, M. Ishida, T. Nakajima, Y. Honda, O. Kitao, H. Nakai, 
 T. Vreven, K. Throssell, J. A. Montgomery, Jr., J. E. Peralta, 
 F. Ogliaro, M. J. Bearpark, J. J. Heyd, E. N. Brothers, K. N. Kudin, 
 V. N. Staroverov, T. A. Keith, R. Kobayashi, J. Normand, 
 K. Raghavachari, A. P. Rendell, J. C. Burant, S. S. Iyengar, 
 J. Tomasi, M. Cossi, J. M. Millam, M. Klene, C. Adamo, R. Cammi, 
 J. W. Ochterski, R. L. Martin, K. Morokuma, O. Farkas, 
 J. B. Foresman, and D. J. Fox, Gaussian, Inc., Wallingford CT, 2019.
 
 ******************************************
 Gaussian 16:  ES64L-G16RevC.01  3-Jul-2019
                23-Sep-2021 
 ******************************************
 %mem=15GB
 %chk=MeMebz.chk
 %nprocshared=8
 Will use up to    8 processors via shared memory.
 ----------------------------------------------------
 # opt freq b3lyp/6-31g(d) scrf=(smd,solvent=toluene)
 ----------------------------------------------------
 1/18=20,19=15,26=3,38=1/1,3;
 2/9=110,12=2,17=6,18=5,40=1/2;
 3/5=1,6=6,7=1,11=2,25=1,30=1,70=32201,71=1,72=13,74=-5/1,2,3;
 4//1;
 5/5=2,38=5,53=13/2;
 6/7=2,8=2,9=2,10=2,28=1/1;
 7//1,2,3,16;
 1/18=20,19=15,26=3/3(2);
 2/9=110/2;
 99//99;
 2/9=110/2;
 3/5=1,6=6,7=1,11=2,25=1,30=1,70=32205,71=1,72=13,74=-5/1,2,3;
 4/5=5,16=3,69=1/1;
 5/5=2,38=5,53=13/2;
 7//1,2,3,16;
 1/18=20,19=15,26=3/3(-5);
 2/9=110/2;
 6/7=2,8=2,9=2,10=2,19=2,28=1/1;
 99/9=1/99;
 ------
 MeMebz
 ------
 Symbolic Z-matrix:
 Charge =  0 Multiplicity = 1
 C                     1.36765  -0.94118   0. 
 C                     2.76281  -0.94118   0. 
 C                     3.46035   0.26657   0. 
 C                     2.76269   1.47508  -0.0012 
 C                     1.36787   1.47501  -0.00168 
 C                     0.67027   0.2668   -0.00068 
 H                     0.81789  -1.89349   0.00045 
 H                     0.81774   2.42729  -0.00263 
 O                     4.89034   0.26668   0.00082 
 H                     5.21132   0.26556  -0.90393 
 C                     3.5332    2.80847  -0.00128 
 H                     4.17391   2.85022   0.85467 
 H                     4.12234   2.87991  -0.89162 
 H                     2.83869   3.62173   0.03306 
 C                     3.53236  -2.27511   0.00184 
 H                     4.12235  -2.34774  -0.88784 
 H                     4.17218  -2.31658   0.85847 
 H                     2.83724  -3.08784   0.03618 
 C                    -0.86973   0.26706  -0.00093 
 H                    -1.22634   1.13543   0.51255 
 H                    -1.22623   0.2777   -1.00974 
 H                    -1.22663  -0.61178   0.49422 
 

 GradGradGradGradGradGradGradGradGradGradGradGradGradGradGradGradGradGrad
 Berny optimization.
 Initialization pass.
                           ----------------------------
                           !    Initial Parameters    !
                           ! (Angstroms and Degrees)  !
 --------------------------                            --------------------------
 ! Name  Definition              Value          Derivative Info.                !
 --------------------------------------------------------------------------------
 ! R1    R(1,2)                  1.3952         estimate D2E/DX2                !
 ! R2    R(1,6)                  1.3948         estimate D2E/DX2                !
 ! R3    R(1,7)                  1.0996         estimate D2E/DX2                !
 ! R4    R(2,3)                  1.3947         estimate D2E/DX2                !
 ! R5    R(2,15)                 1.54           estimate D2E/DX2                !
 ! R6    R(3,4)                  1.3954         estimate D2E/DX2                !
 ! R7    R(3,9)                  1.43           estimate D2E/DX2                !
 ! R8    R(4,5)                  1.3948         estimate D2E/DX2                !
 ! R9    R(4,11)                 1.54           estimate D2E/DX2                !
 ! R10   R(5,6)                  1.3951         estimate D2E/DX2                !
 ! R11   R(5,8)                  1.0998         estimate D2E/DX2                !
 ! R12   R(6,19)                 1.54           estimate D2E/DX2                !
 ! R13   R(9,10)                 0.96           estimate D2E/DX2                !
 ! R14   R(11,12)                1.07           estimate D2E/DX2                !
 ! R15   R(11,13)                1.07           estimate D2E/DX2                !
 ! R16   R(11,14)                1.07           estimate D2E/DX2                !
 ! R17   R(15,16)                1.07           estimate D2E/DX2                !
 ! R18   R(15,17)                1.07           estimate D2E/DX2                !
 ! R19   R(15,18)                1.07           estimate D2E/DX2                !
 ! R20   R(19,20)                1.07           estimate D2E/DX2                !
 ! R21   R(19,21)                1.07           estimate D2E/DX2                !
 ! R22   R(19,22)                1.07           estimate D2E/DX2                !
 ! A1    A(2,1,6)              119.9985         estimate D2E/DX2                !
 ! A2    A(2,1,7)              119.9972         estimate D2E/DX2                !
 ! A3    A(6,1,7)              120.0043         estimate D2E/DX2                !
 ! A4    A(1,2,3)              120.0086         estimate D2E/DX2                !
 ! A5    A(1,2,15)             119.9808         estimate D2E/DX2                !
 ! A6    A(3,2,15)             120.0106         estimate D2E/DX2                !
 ! A7    A(2,3,4)              119.9942         estimate D2E/DX2                !
 ! A8    A(2,3,9)              120.0128         estimate D2E/DX2                !
 ! A9    A(4,3,9)              119.993          estimate D2E/DX2                !
 ! A10   A(3,4,5)              119.994          estimate D2E/DX2                !
 ! A11   A(3,4,11)             119.9811         estimate D2E/DX2                !
 ! A12   A(5,4,11)             120.0249         estimate D2E/DX2                !
 ! A13   A(4,5,6)              120.0047         estimate D2E/DX2                !
 ! A14   A(4,5,8)              120.0113         estimate D2E/DX2                !
 ! A15   A(6,5,8)              119.984          estimate D2E/DX2                !
 ! A16   A(1,6,5)              120.0            estimate D2E/DX2                !
 ! A17   A(1,6,19)             120.008          estimate D2E/DX2                !
 ! A18   A(5,6,19)             119.992          estimate D2E/DX2                !
 ! A19   A(3,9,10)             109.5            estimate D2E/DX2                !
 ! A20   A(4,11,12)            109.4712         estimate D2E/DX2                !
 ! A21   A(4,11,13)            109.4712         estimate D2E/DX2                !
 ! A22   A(4,11,14)            109.4712         estimate D2E/DX2                !
 ! A23   A(12,11,13)           109.4713         estimate D2E/DX2                !
 ! A24   A(12,11,14)           109.4712         estimate D2E/DX2                !
 ! A25   A(13,11,14)           109.4712         estimate D2E/DX2                !
 ! A26   A(2,15,16)            109.4712         estimate D2E/DX2                !
 ! A27   A(2,15,17)            109.4712         estimate D2E/DX2                !
 ! A28   A(2,15,18)            109.4712         estimate D2E/DX2                !
 ! A29   A(16,15,17)           109.4713         estimate D2E/DX2                !
 ! A30   A(16,15,18)           109.4712         estimate D2E/DX2                !
 ! A31   A(17,15,18)           109.4712         estimate D2E/DX2                !
 ! A32   A(6,19,20)            109.4712         estimate D2E/DX2                !
 ! A33   A(6,19,21)            109.4712         estimate D2E/DX2                !
 ! A34   A(6,19,22)            109.4712         estimate D2E/DX2                !
 ! A35   A(20,19,21)           109.4713         estimate D2E/DX2                !
 ! A36   A(20,19,22)           109.4712         estimate D2E/DX2                !
 ! A37   A(21,19,22)           109.4712         estimate D2E/DX2                !
 ! D1    D(6,1,2,3)              0.0323         estimate D2E/DX2                !
 ! D2    D(6,1,2,15)           179.9532         estimate D2E/DX2                !
 ! D3    D(7,1,2,3)           -179.9729         estimate D2E/DX2                !
 ! D4    D(7,1,2,15)            -0.052          estimate D2E/DX2                !
 ! D5    D(2,1,6,5)              0.0149         estimate D2E/DX2                !
 ! D6    D(2,1,6,19)           179.9892         estimate D2E/DX2                !
 ! D7    D(7,1,6,5)           -179.9798         estimate D2E/DX2                !
 ! D8    D(7,1,6,19)            -0.0056         estimate D2E/DX2                !
 ! D9    D(1,2,3,4)             -0.0568         estimate D2E/DX2                !
 ! D10   D(1,2,3,9)            179.9619         estimate D2E/DX2                !
 ! D11   D(15,2,3,4)          -179.9777         estimate D2E/DX2                !
 ! D12   D(15,2,3,9)             0.041          estimate D2E/DX2                !
 ! D13   D(1,2,15,16)          118.1133         estimate D2E/DX2                !
 ! D14   D(1,2,15,17)         -121.8867         estimate D2E/DX2                !
 ! D15   D(1,2,15,18)           -1.8867         estimate D2E/DX2                !
 ! D16   D(3,2,15,16)          -61.9658         estimate D2E/DX2                !
 ! D17   D(3,2,15,17)           58.0342         estimate D2E/DX2                !
 ! D18   D(3,2,15,18)          178.0342         estimate D2E/DX2                !
 ! D19   D(2,3,4,5)              0.0341         estimate D2E/DX2                !
 ! D20   D(2,3,4,11)          -179.9964         estimate D2E/DX2                !
 ! D21   D(9,3,4,5)           -179.9846         estimate D2E/DX2                !
 ! D22   D(9,3,4,11)            -0.0151         estimate D2E/DX2                !
 ! D23   D(2,3,9,10)            89.947          estimate D2E/DX2                !
 ! D24   D(4,3,9,10)           -90.0343         estimate D2E/DX2                !
 ! D25   D(3,4,5,6)              0.0131         estimate D2E/DX2                !
 ! D26   D(3,4,5,8)           -179.9995         estimate D2E/DX2                !
 ! D27   D(11,4,5,6)          -179.9563         estimate D2E/DX2                !
 ! D28   D(11,4,5,8)             0.0311         estimate D2E/DX2                !
 ! D29   D(3,4,11,12)          -57.9933         estimate D2E/DX2                !
 ! D30   D(3,4,11,13)           62.0068         estimate D2E/DX2                !
 ! D31   D(3,4,11,14)         -177.9933         estimate D2E/DX2                !
 ! D32   D(5,4,11,12)          121.9762         estimate D2E/DX2                !
 ! D33   D(5,4,11,13)         -118.0238         estimate D2E/DX2                !
 ! D34   D(5,4,11,14)            1.9762         estimate D2E/DX2                !
 ! D35   D(4,5,6,1)             -0.0376         estimate D2E/DX2                !
 ! D36   D(4,5,6,19)           179.9881         estimate D2E/DX2                !
 ! D37   D(8,5,6,1)            179.975          estimate D2E/DX2                !
 ! D38   D(8,5,6,19)             0.0007         estimate D2E/DX2                !
 ! D39   D(1,6,19,20)          149.372          estimate D2E/DX2                !
 ! D40   D(1,6,19,21)          -90.628          estimate D2E/DX2                !
 ! D41   D(1,6,19,22)           29.372          estimate D2E/DX2                !
 ! D42   D(5,6,19,20)          -30.6537         estimate D2E/DX2                !
 ! D43   D(5,6,19,21)           89.3463         estimate D2E/DX2                !
 ! D44   D(5,6,19,22)         -150.6537         estimate D2E/DX2                !
 --------------------------------------------------------------------------------
 Trust Radius=3.00D-01 FncErr=1.00D-07 GrdErr=1.00D-06 EigMax=2.50D+02 EigMin=1.00D-04
 Number of steps in this run=    113 maximum allowed number of steps=    132.
 GradGradGradGradGradGradGradGradGradGradGradGradGradGradGradGradGradGrad

                          Input orientation:                          
 ---------------------------------------------------------------------
 Center     Atomic      Atomic             Coordinates (Angstroms)
 Number     Number       Type             X           Y           Z
 ---------------------------------------------------------------------
      1          6           0        1.367647   -0.941176    0.000000
      2          6           0        2.762807   -0.941176    0.000000
      3          6           0        3.460345    0.266575    0.000000
      4          6           0        2.762691    1.475084   -0.001199
      5          6           0        1.367866    1.475006   -0.001678
      6          6           0        0.670265    0.266800   -0.000682
      7          1           0        0.817888   -1.893493    0.000450
      8          1           0        0.817744    2.427287   -0.002631
      9          8           0        4.890345    0.266679    0.000824
     10          1           0        5.211321    0.265563   -0.903926
     11          6           0        3.533195    2.808472   -0.001282
     12          1           0        4.173907    2.850219    0.854666
     13          1           0        4.122336    2.879911   -0.891624
     14          1           0        2.838692    3.621728    0.033056
     15          6           0        3.532359   -2.275113    0.001842
     16          1           0        4.122348   -2.347738   -0.887843
     17          1           0        4.172176   -2.316581    0.858471
     18          1           0        2.837242   -3.087845    0.036176
     19          6           0       -0.869735    0.267056   -0.000934
     20          1           0       -1.226341    1.135427    0.512548
     21          1           0       -1.226234    0.277698   -1.009743
     22          1           0       -1.226629   -0.611779    0.494218
 ---------------------------------------------------------------------
                    Distance matrix (angstroms):
                    1          2          3          4          5
     1  C    0.000000
     2  C    1.395160   0.000000
     3  C    2.416205   1.394712   0.000000
     4  C    2.790065   2.416260   1.395427   0.000000
     5  C    2.416183   2.789946   2.416356   1.394825   0.000000
     6  C    1.394829   2.416183   2.790080   2.416236   1.395138
     7  H    1.099610   2.165553   3.412986   3.889675   3.413102
     8  H    3.413055   3.889707   3.413506   2.165528   1.099761
     9  O    3.724019   2.446494   1.430000   2.446867   3.723965
    10  H    4.128817   2.875504   1.970533   2.876394   4.129037
    11  C    4.330065   3.827971   2.542941   1.540000   2.542987
    12  H    4.793770   4.134772   2.813333   2.148263   3.240124
    13  H    4.794165   4.152592   2.839499   2.148263   3.217588
    14  H    4.794285   4.563656   3.412419   2.148263   2.602490
    15  C    2.542709   1.540000   2.542708   3.828364   4.329946
    16  H    3.217928   2.148263   2.839215   4.153164   4.794354
    17  H    3.239459   2.148263   2.813604   4.135505   4.793761
    18  H    2.601769   2.148263   3.411993   4.563690   4.793757
    19  C    2.542775   3.828209   4.330080   3.828035   2.542833
    20  H    3.362107   4.526399   4.794021   4.036295   2.666393
    21  H    3.038660   4.291583   4.794135   4.285139   3.029702
    22  H    2.661395   4.033405   4.794109   4.529361   3.366302
                    6          7          8          9         10
     6  C    0.000000
     7  H    2.165331   0.000000
     8  H    2.165516   4.320781   0.000000
     9  O    4.220080   4.609908   4.610240   0.000000
    10  H    4.630015   4.978120   4.978845   0.960000   0.000000
    11  C    3.828376   5.429675   2.742076   2.881418   3.177618
    12  H    4.436348   5.873275   3.489650   2.813718   3.293830
    13  H    4.420286   5.873718   3.451885   2.866232   2.832111
    14  H    3.994842   5.873873   2.347807   3.932770   4.215584
    15  C    3.827912   2.741166   5.429707   2.881810   3.177163
    16  H    4.420378   3.451791   5.874084   2.866134   2.831160
    17  H    4.435694   3.488044   5.873499   2.815058   3.294440
    18  H    3.993844   2.346389   5.873377   3.933104   4.214901
    19  C    1.540000   2.741541   2.741201   5.760080   6.147734
    20  H    2.148263   3.689915   2.472366   6.199228   6.648801
    21  H    2.148263   3.148491   3.132547   6.199509   6.438437
    22  H    2.148263   2.463057   3.696247   6.199395   6.646182
                   11         12         13         14         15
    11  C    0.000000
    12  H    1.070000   0.000000
    13  H    1.070000   1.747303   0.000000
    14  H    1.070000   1.747303   1.747303   0.000000
    15  C    5.083585   5.235257   5.265038   5.937582   0.000000
    16  H    5.264939   5.482495   5.227651   6.174978   1.070000
    17  H    5.235803   5.166802   5.483507   6.141906   1.070000
    18  H    5.937365   6.141433   6.174657   6.709574   1.070000
    19  C    5.083757   5.730890   5.704482   5.000742   5.083411
    20  H    5.071122   5.676287   5.798557   4.789165   5.876889
    21  H    5.483975   6.265414   5.949174   5.365967   5.494029
    22  H    5.882139   6.425040   6.536351   5.887453   5.065282
                   16         17         18         19         20
    16  H    0.000000
    17  H    1.747303   0.000000
    18  H    1.747303   1.747303   0.000000
    19  C    5.704792   5.730151   4.999841   0.000000
    20  H    6.534677   6.417165   5.880107   1.070000   0.000000
    21  H    5.959455   6.274021   5.378909   1.070000   1.747303
    22  H    5.790959   5.673282   4.780769   1.070000   1.747303
                   21         22
    21  H    0.000000
    22  H    1.747303   0.000000
 Stoichiometry    C9H12O
 Framework group  C1[X(C9H12O)]
 Deg. of freedom    60
 Full point group                 C1      NOp   1
 Largest Abelian subgroup         C1      NOp   1
 Largest concise Abelian subgroup C1      NOp   1
                         Standard orientation:                         
 ---------------------------------------------------------------------
 Center     Atomic      Atomic             Coordinates (Angstroms)
 Number     Number       Type             X           Y           Z
 ---------------------------------------------------------------------
      1          6           0       -1.011976    1.207922   -0.000675
      2          6           0        0.383101    1.208003   -0.015923
      3          6           0        1.080660    0.000293   -0.024288
      4          6           0        0.383123   -1.208257   -0.016206
      5          6           0       -1.011613   -1.208261   -0.000482
      6          6           0       -1.709246   -0.000095    0.006888
      7          1           0       -1.561757    2.160206    0.005468
      8          1           0       -1.561643   -2.160575    0.005898
      9          8           0        2.510565    0.000274   -0.040741
     10          1           0        2.841410    0.000853    0.860448
     11          6           0        1.153651   -2.541600   -0.025363
     12          1           0        1.784972   -2.582785   -0.888287
     13          1           0        1.752492   -2.613551    0.858443
     14          1           0        0.458857   -3.354876   -0.052607
     15          6           0        1.152518    2.541985   -0.025356
     16          1           0        1.752191    2.614100    0.857872
     17          1           0        1.782932    2.584016   -0.888902
     18          1           0        0.457025    3.354698   -0.051592
     19          6           0       -3.249151   -0.000442    0.023971
     20          1           0       -3.611303   -0.868519   -0.486116
     21          1           0       -3.594604   -0.011724    1.036609
     22          1           0       -3.611482    0.878676   -0.466711
 ---------------------------------------------------------------------
 Rotational constants (GHZ):           1.7343920           1.2407389           0.7346981
 Standard basis: 6-31G(d) (6D, 7F)
 There are   174 symmetry adapted cartesian basis functions of A   symmetry.
 There are   174 symmetry adapted basis functions of A   symmetry.
   174 basis functions,   328 primitive gaussians,   174 cartesian basis functions
    37 alpha electrons       37 beta electrons
       nuclear repulsion energy       512.3401159713 Hartrees.
 NAtoms=   22 NActive=   22 NUniq=   22 SFac= 1.00D+00 NAtFMM=   60 NAOKFM=F Big=F
 Integral buffers will be    131072 words long.
 Raffenetti 2 integral format.
 Two-electron integral symmetry is turned on.
 ------------------------------------------------------------------------------
 Polarizable Continuum Model (PCM)
 =================================
 Model                : PCM.
 Atomic radii         : SMD-Coulomb.
 Polarization charges : Total charges.
 Charge compensation  : None.
 Solution method      : On-the-fly selection.
 Cavity type          : VdW (van der Waals Surface) (Alpha=1.000).
 Cavity algorithm     : GePol (No added spheres)
                        Default sphere list used, NSphG=   22.
                        Lebedev-Laikov grids with approx.  5.0 points / Ang**2.
                        Smoothing algorithm: York/Karplus (Gamma=1.0000).
                        Polarization charges: spherical gaussians, with
                                              point-specific exponents (IZeta= 3).
                        Self-potential: point-specific (ISelfS= 7).
                        Self-field    : sphere-specific E.n sum rule (ISelfD= 2).
 1st derivatives      : Analytical E(r).r(x)/FMM algorithm (CHGder, D1EAlg=3).
                        Cavity 1st derivative terms included.
 Solvent              : Toluene, Eps=   2.374100 Eps(inf)=   2.238315
 ------------------------------------------------------------------------------
 ------------------------------------------------------------------------------
 Atomic radii for non-electrostatic terms: SMD-CDS.
 ------------------------------------------------------------------------------
 Nuclear repulsion after PCM non-electrostatic terms =      512.3335952834 Hartrees.
 One-electron integrals computed using PRISM.
 NBasis=   174 RedAO= T EigKep=  3.41D-04  NBF=   174
 NBsUse=   174 1.00D-06 EigRej= -1.00D+00 NBFU=   174
 ExpMin= 1.61D-01 ExpMax= 5.48D+03 ExpMxC= 8.25D+02 IAcc=3 IRadAn=         5 AccDes= 0.00D+00
 Harris functional with IExCor=  402 and IRadAn=       5 diagonalized for initial guess.
 HarFok:  IExCor=  402 AccDes= 0.00D+00 IRadAn=         5 IDoV= 1 UseB2=F ITyADJ=14
 ICtDFT=  3500011 ScaDFX=  1.000000  1.000000  1.000000  1.000000
 FoFCou: FMM=F IPFlag=           0 FMFlag=      100000 FMFlg1=           0
         NFxFlg=           0 DoJE=T BraDBF=F KetDBF=T FulRan=T
         wScrn=  0.000000 ICntrl=       500 IOpCl=  0 I1Cent=   200000004 NGrid=           0
         NMat0=    1 NMatS0=      1 NMatT0=    0 NMatD0=    1 NMtDS0=    0 NMtDT0=    0
 Petite list used in FoFCou.
 Requested convergence on RMS density matrix=1.00D-08 within 128 cycles.
 Requested convergence on MAX density matrix=1.00D-06.
 Requested convergence on             energy=1.00D-06.
 No special actions if energy rises.
 Inv3:  Mode=1 IEnd=     8507568.
 Iteration    1 A*A^-1 deviation from unit magnitude is 2.89D-15 for   1248.
 Iteration    1 A*A^-1 deviation from orthogonality  is 1.27D-15 for   1034    343.
 Iteration    1 A^-1*A deviation from unit magnitude is 3.11D-15 for   1660.
 Iteration    1 A^-1*A deviation from orthogonality  is 1.67D-15 for   1639    745.
 Error on total polarization charges =  0.02237
 SCF Done:  E(RB3LYP) =  -425.414971259     A.U. after   12 cycles
            NFock= 12  Conv=0.32D-08     -V/T= 2.0093
 SMD-CDS (non-electrostatic) energy       (kcal/mol) =      -4.09
 (included in total energy above)

 **********************************************************************

            Population analysis using the SCF Density.

 **********************************************************************

 Orbital symmetries:
       Occupied  (A) (A) (A) (A) (A) (A) (A) (A) (A) (A) (A) (A)
                 (A) (A) (A) (A) (A) (A) (A) (A) (A) (A) (A) (A)
                 (A) (A) (A) (A) (A) (A) (A) (A) (A) (A) (A) (A)
                 (A)
       Virtual   (A) (A) (A) (A) (A) (A) (A) (A) (A) (A) (A) (A)
                 (A) (A) (A) (A) (A) (A) (A) (A) (A) (A) (A) (A)
                 (A) (A) (A) (A) (A) (A) (A) (A) (A) (A) (A) (A)
                 (A) (A) (A) (A) (A) (A) (A) (A) (A) (A) (A) (A)
                 (A) (A) (A) (A) (A) (A) (A) (A) (A) (A) (A) (A)
                 (A) (A) (A) (A) (A) (A) (A) (A) (A) (A) (A) (A)
                 (A) (A) (A) (A) (A) (A) (A) (A) (A) (A) (A) (A)
                 (A) (A) (A) (A) (A) (A) (A) (A) (A) (A) (A) (A)
                 (A) (A) (A) (A) (A) (A) (A) (A) (A) (A) (A) (A)
                 (A) (A) (A) (A) (A) (A) (A) (A) (A) (A) (A) (A)
                 (A) (A) (A) (A) (A) (A) (A) (A) (A) (A) (A) (A)
                 (A) (A) (A) (A) (A)
 The electronic state is 1-A.
 Alpha  occ. eigenvalues --  -19.15284 -10.22606 -10.18735 -10.18729 -10.18565
 Alpha  occ. eigenvalues --  -10.17510 -10.17509 -10.16731 -10.16723 -10.16723
 Alpha  occ. eigenvalues --   -1.01997  -0.84791  -0.77082  -0.76390  -0.69459
 Alpha  occ. eigenvalues --   -0.67239  -0.66970  -0.57064  -0.56546  -0.51971
 Alpha  occ. eigenvalues --   -0.47722  -0.44785  -0.42367  -0.41289  -0.40978
 Alpha  occ. eigenvalues --   -0.40740  -0.39558  -0.39506  -0.38933  -0.38126
 Alpha  occ. eigenvalues --   -0.36491  -0.33083  -0.32868  -0.32264  -0.28305
 Alpha  occ. eigenvalues --   -0.23219  -0.22231
 Alpha virt. eigenvalues --    0.01323   0.01349   0.07436   0.10851   0.13645
 Alpha virt. eigenvalues --    0.13934   0.14964   0.15355   0.15906   0.17187
 Alpha virt. eigenvalues --    0.18509   0.19331   0.20125   0.21044   0.22170
 Alpha virt. eigenvalues --    0.23763   0.25127   0.25820   0.26558   0.35581
 Alpha virt. eigenvalues --    0.36851   0.38752   0.38969   0.46808   0.48637
 Alpha virt. eigenvalues --    0.51261   0.54272   0.55280   0.55641   0.55971
 Alpha virt. eigenvalues --    0.56255   0.57559   0.57907   0.59048   0.62198
 Alpha virt. eigenvalues --    0.64006   0.66659   0.67044   0.69371   0.69832
 Alpha virt. eigenvalues --    0.73257   0.74038   0.74725   0.77223   0.77473
 Alpha virt. eigenvalues --    0.80075   0.80890   0.82596   0.84599   0.84904
 Alpha virt. eigenvalues --    0.87800   0.91185   0.91309   0.92717   0.93431
 Alpha virt. eigenvalues --    0.94361   0.96738   0.97107   0.98295   0.99657
 Alpha virt. eigenvalues --    1.00310   1.02798   1.07144   1.09272   1.10371
 Alpha virt. eigenvalues --    1.12513   1.17994   1.20204   1.20531   1.24905
 Alpha virt. eigenvalues --    1.26255   1.28862   1.35906   1.39905   1.40192
 Alpha virt. eigenvalues --    1.41087   1.42084   1.48562   1.49372   1.52560
 Alpha virt. eigenvalues --    1.58339   1.69624   1.75500   1.77890   1.79815
 Alpha virt. eigenvalues --    1.82501   1.83465   1.84749   1.86115   1.89748
 Alpha virt. eigenvalues --    1.90093   1.92245   1.92497   1.93426   1.94422
 Alpha virt. eigenvalues --    2.03671   2.04454   2.07177   2.12469   2.19898
 Alpha virt. eigenvalues --    2.20136   2.24919   2.25928   2.26663   2.27461
 Alpha virt. eigenvalues --    2.31834   2.32383   2.35089   2.35638   2.37977
 Alpha virt. eigenvalues --    2.38138   2.38771   2.39528   2.41939   2.46562
 Alpha virt. eigenvalues --    2.56626   2.66390   2.68443   2.70127   2.73870
 Alpha virt. eigenvalues --    2.81084   2.85719   2.87715   2.90124   3.04615
 Alpha virt. eigenvalues --    3.16670   3.43320   3.96380   4.11328   4.12447
 Alpha virt. eigenvalues --    4.16663   4.25837   4.27158   4.38021   4.42910
 Alpha virt. eigenvalues --    4.47489   4.79096
          Condensed to atoms (all electrons):
               1          2          3          4          5          6
     1  C    5.066074   0.528368  -0.022663  -0.048150  -0.043551   0.529880
     2  C    0.528368   4.863014   0.472823  -0.068474  -0.048235  -0.013871
     3  C   -0.022663   0.472823   4.798644   0.472419  -0.022637  -0.046884
     4  C   -0.048150  -0.068474   0.472419   4.862468   0.528974  -0.013667
     5  C   -0.043551  -0.048235  -0.022637   0.528974   5.066760   0.528902
     6  C    0.529880  -0.013871  -0.046884  -0.013667   0.528902   4.677159
     7  H    0.353583  -0.040874   0.004386   0.000191   0.005487  -0.045257
     8  H    0.005468   0.000194   0.004384  -0.040812   0.353732  -0.045511
     9  O    0.003393  -0.083578   0.298470  -0.083506   0.003392  -0.000031
    10  H    0.000005  -0.001397  -0.025284  -0.001374   0.000005  -0.000005
    11  C    0.000875   0.008109  -0.054358   0.327132  -0.053747   0.006359
    12  H   -0.000011   0.000071  -0.004175  -0.025287   0.000444  -0.000164
    13  H    0.000030  -0.000068  -0.003977  -0.025923   0.001125  -0.000164
    14  H   -0.000003  -0.000092   0.004482  -0.030939  -0.002617   0.000131
    15  C   -0.053643   0.327036  -0.054459   0.008095   0.000877   0.006381
    16  H    0.001132  -0.025923  -0.003975  -0.000066   0.000030  -0.000165
    17  H    0.000434  -0.025299  -0.004164   0.000071  -0.000011  -0.000165
    18  H   -0.002627  -0.030946   0.004483  -0.000092  -0.000003   0.000133
    19  C   -0.053591   0.005719   0.001292   0.005666  -0.054190   0.339140
    20  H    0.002684  -0.000172   0.000002   0.000104  -0.002723  -0.028215
    21  H   -0.001822  -0.000101   0.000005  -0.000096  -0.001874  -0.025465
    22  H   -0.002729   0.000111   0.000001  -0.000170   0.002757  -0.028319
               7          8          9         10         11         12
     1  C    0.353583   0.005468   0.003393   0.000005   0.000875  -0.000011
     2  C   -0.040874   0.000194  -0.083578  -0.001397   0.008109   0.000071
     3  C    0.004386   0.004384   0.298470  -0.025284  -0.054358  -0.004175
     4  C    0.000191  -0.040812  -0.083506  -0.001374   0.327132  -0.025287
     5  C    0.005487   0.353732   0.003392   0.000005  -0.053747   0.000444
     6  C   -0.045257  -0.045511  -0.000031  -0.000005   0.006359  -0.000164
     7  H    0.600391  -0.000176  -0.000052   0.000004   0.000012  -0.000000
     8  H   -0.000176   0.600501  -0.000052   0.000004  -0.010003   0.000151
     9  O   -0.000052  -0.000052   8.289125   0.239977   0.001507   0.003071
    10  H    0.000004   0.000004   0.239977   0.370535   0.000091  -0.000505
    11  C    0.000012  -0.010003   0.001507   0.000091   5.185401   0.371616
    12  H   -0.000000   0.000151   0.003071  -0.000505   0.371616   0.535323
    13  H   -0.000000   0.000153   0.002632   0.001561   0.365837  -0.029777
    14  H   -0.000000   0.006320   0.000466  -0.000032   0.363992  -0.027417
    15  C   -0.010017   0.000012   0.001497   0.000093  -0.000217   0.000005
    16  H    0.000153  -0.000000   0.002635   0.001566  -0.000001   0.000001
    17  H    0.000152  -0.000000   0.003061  -0.000506   0.000005  -0.000003
    18  H    0.006328  -0.000000   0.000465  -0.000032   0.000001  -0.000000
    19  C   -0.008607  -0.008521   0.000001  -0.000000  -0.000224   0.000004
    20  H    0.000051   0.004822  -0.000000   0.000000  -0.000003  -0.000000
    21  H    0.000567   0.000602  -0.000000  -0.000000   0.000003   0.000000
    22  H    0.004953   0.000050  -0.000000   0.000000   0.000002  -0.000000
              13         14         15         16         17         18
     1  C    0.000030  -0.000003  -0.053643   0.001132   0.000434  -0.002627
     2  C   -0.000068  -0.000092   0.327036  -0.025923  -0.025299  -0.030946
     3  C   -0.003977   0.004482  -0.054459  -0.003975  -0.004164   0.004483
     4  C   -0.025923  -0.030939   0.008095  -0.000066   0.000071  -0.000092
     5  C    0.001125  -0.002617   0.000877   0.000030  -0.000011  -0.000003
     6  C   -0.000164   0.000131   0.006381  -0.000165  -0.000165   0.000133
     7  H   -0.000000  -0.000000  -0.010017   0.000153   0.000152   0.006328
     8  H    0.000153   0.006320   0.000012  -0.000000  -0.000000  -0.000000
     9  O    0.002632   0.000466   0.001497   0.002635   0.003061   0.000465
    10  H    0.001561  -0.000032   0.000093   0.001566  -0.000506  -0.000032
    11  C    0.365837   0.363992  -0.000217  -0.000001   0.000005   0.000001
    12  H   -0.029777  -0.027417   0.000005   0.000001  -0.000003  -0.000000
    13  H    0.558539  -0.028623  -0.000001  -0.000003   0.000001  -0.000000
    14  H   -0.028623   0.557695   0.000001  -0.000000  -0.000000  -0.000000
    15  C   -0.000001   0.000001   5.185542   0.365811   0.371623   0.364014
    16  H   -0.000003  -0.000000   0.365811   0.558587  -0.029772  -0.028622
    17  H    0.000001  -0.000000   0.371623  -0.029772   0.535332  -0.027416
    18  H   -0.000000  -0.000000   0.364014  -0.028622  -0.027416   0.557656
    19  C    0.000002  -0.000006  -0.000225   0.000002   0.000004  -0.000006
    20  H    0.000000  -0.000000   0.000002  -0.000000  -0.000000   0.000000
    21  H   -0.000000   0.000000   0.000003  -0.000000   0.000000   0.000000
    22  H   -0.000000   0.000000  -0.000004   0.000000  -0.000000  -0.000000
              19         20         21         22
     1  C   -0.053591   0.002684  -0.001822  -0.002729
     2  C    0.005719  -0.000172  -0.000101   0.000111
     3  C    0.001292   0.000002   0.000005   0.000001
     4  C    0.005666   0.000104  -0.000096  -0.000170
     5  C   -0.054190  -0.002723  -0.001874   0.002757
     6  C    0.339140  -0.028215  -0.025465  -0.028319
     7  H   -0.008607   0.000051   0.000567   0.004953
     8  H   -0.008521   0.004822   0.000602   0.000050
     9  O    0.000001  -0.000000  -0.000000  -0.000000
    10  H   -0.000000   0.000000  -0.000000   0.000000
    11  C   -0.000224  -0.000003   0.000003   0.000002
    12  H    0.000004  -0.000000   0.000000  -0.000000
    13  H    0.000002   0.000000  -0.000000  -0.000000
    14  H   -0.000006  -0.000000   0.000000   0.000000
    15  C   -0.000225   0.000002   0.000003  -0.000004
    16  H    0.000002  -0.000000  -0.000000   0.000000
    17  H    0.000004  -0.000000   0.000000  -0.000000
    18  H   -0.000006   0.000000   0.000000  -0.000000
    19  C    5.197149   0.368723   0.367129   0.368728
    20  H    0.368723   0.547773  -0.028950  -0.027120
    21  H    0.367129  -0.028950   0.547729  -0.028829
    22  H    0.368728  -0.027120  -0.028829   0.547750
 Mulliken charges:
               1
     1  C   -0.263136
     2  C    0.133584
     3  C    0.181184
     4  C    0.133433
     5  C   -0.262897
     6  C    0.159798
     7  H    0.128725
     8  H    0.128680
     9  O   -0.682474
    10  H    0.415295
    11  C   -0.512390
    12  H    0.176652
    13  H    0.158655
    14  H    0.156641
    15  C   -0.512427
    16  H    0.158611
    17  H    0.176653
    18  H    0.156664
    19  C   -0.528190
    20  H    0.163022
    21  H    0.171098
    22  H    0.162818
 Sum of Mulliken charges =  -0.00000
 Mulliken charges with hydrogens summed into heavy atoms:
               1
     1  C   -0.134411
     2  C    0.133584
     3  C    0.181184
     4  C    0.133433
     5  C   -0.134216
     6  C    0.159798
     9  O   -0.267179
    11  C   -0.020442
    15  C   -0.020500
    19  C   -0.031251
 Electronic spatial extent (au):  <R**2>=           1597.8573
 Charge=             -0.0000 electrons
 Dipole moment (field-independent basis, Debye):
    X=             -0.4845    Y=             -0.0006    Z=              1.5620  Tot=              1.6354
 Quadrupole moment (field-independent basis, Debye-Ang):
   XX=            -56.9461   YY=            -55.5715   ZZ=            -60.2175
   XY=              0.0054   XZ=              4.7232   YZ=              0.0009
 Traceless Quadrupole moment (field-independent basis, Debye-Ang):
   XX=              0.6323   YY=              2.0068   ZZ=             -2.6391
   XY=              0.0054   XZ=              4.7232   YZ=              0.0009
 Octapole moment (field-independent basis, Debye-Ang**2):
  XXX=              6.5199  YYY=              0.0166  ZZZ=              2.5662  XYY=              0.4247
  XXY=             -0.0052  XXZ=             14.8881  XZZ=             10.5717  YZZ=             -0.0157
  YYZ=             -0.9831  XYZ=              0.0045
 Hexadecapole moment (field-independent basis, Debye-Ang**3):
 XXXX=          -1120.0465 YYYY=           -880.2941 ZZZZ=            -80.8948 XXXY=              0.0545
 XXXZ=             44.2555 YYYX=             -0.0603 YYYZ=              0.0001 ZZZX=              3.7799
 ZZZY=             -0.0057 XXYY=           -330.6884 XXZZ=           -186.9239 YYZZ=           -165.5760
 XXYZ=              0.0157 YYXZ=              1.6661 ZZXY=              0.0728
 N-N= 5.123335952834D+02 E-N=-2.012705688067D+03  KE= 4.215022520293D+02
 D1PCM: PCM CHGder 1st derivatives, ID1Alg=3 FixD1E=F DoIter=F DoCFld=F I1PDM=0.
 Calling FoFJK, ICntrl=      2127 FMM=F ISym2X=0 I1Cent= 0 IOpClX= 0 NMat=1 NMatS=1 NMatT=0.
 ***** Axes restored to original set *****
 -------------------------------------------------------------------
 Center     Atomic                   Forces (Hartrees/Bohr)
 Number     Number              X              Y              Z
 -------------------------------------------------------------------
      1        6          -0.000636511    0.001829015    0.000588728
      2        6           0.012390661   -0.025919681    0.000843389
      3        6           0.013827258    0.000328589   -0.007555730
      4        6           0.012713183    0.025521665    0.000727217
      5        6          -0.000829422   -0.001761934    0.000626143
      6        6          -0.024698827    0.000033987    0.001073759
      7        1           0.004621111    0.006773933    0.000310667
      8        1           0.004680002   -0.006827525    0.000324376
      9        8          -0.025123612    0.000015534    0.016671901
     10        1           0.000594716   -0.000016714   -0.011534252
     11        6          -0.019123628   -0.031764288    0.000710290
     12        1           0.012729220    0.003182586    0.011965307
     13        1           0.012284873    0.004539708   -0.013309164
     14        1          -0.009074285    0.014083557    0.000066136
     15        6          -0.019042515    0.031790076    0.000631582
     16        1           0.012298406   -0.004569678   -0.013290671
     17        1           0.012719855   -0.003183782    0.011984685
     18        1          -0.009078943   -0.014071728    0.000070726
     19        6           0.037023721   -0.000067604    0.001712203
     20        1          -0.009149141    0.013181433    0.007052514
     21        1          -0.009987161    0.000192944   -0.016441753
     22        1          -0.009138958   -0.013290092    0.006771948
 -------------------------------------------------------------------
 Cartesian Forces:  Max     0.037023721 RMS     0.012721507

 GradGradGradGradGradGradGradGradGradGradGradGradGradGradGradGradGradGrad
 Berny optimization.
 FormGI is forming the generalized inverse of G from B-inverse, IUseBI=4.
 Internal  Forces:  Max     0.024526687 RMS     0.006783597
 Search for a local minimum.
 Step number   1 out of a maximum of  113
 All quantities printed in internal units (Hartrees-Bohrs-Radians)
 Mixed Optimization -- RFO/linear search
 Second derivative matrix not updated -- first step.
 ITU=  0
     Eigenvalues ---    0.00237   0.00237   0.00237   0.01295   0.01333
     Eigenvalues ---    0.01416   0.01417   0.02002   0.02153   0.02154
     Eigenvalues ---    0.02155   0.02156   0.02156   0.07243   0.07243
     Eigenvalues ---    0.07243   0.07243   0.07243   0.07243   0.16000
     Eigenvalues ---    0.16000   0.16000   0.16000   0.16000   0.16000
     Eigenvalues ---    0.16000   0.16000   0.16000   0.16000   0.16000
     Eigenvalues ---    0.16000   0.23479   0.23493   0.25000   0.25000
     Eigenvalues ---    0.25000   0.25000   0.25000   0.28519   0.28519
     Eigenvalues ---    0.28519   0.33709   0.33725   0.37230   0.37230
     Eigenvalues ---    0.37230   0.37230   0.37230   0.37230   0.37230
     Eigenvalues ---    0.37230   0.37230   0.40989   0.42403   0.42564
     Eigenvalues ---    0.46412   0.46453   0.46466   0.46497   0.55473
 RFO step:  Lambda=-1.40701733D-02 EMin= 2.36824180D-03
 Linear search not attempted -- first point.
 Iteration  1 RMS(Cart)=  0.02568272 RMS(Int)=  0.00034423
 Iteration  2 RMS(Cart)=  0.00031901 RMS(Int)=  0.00014640
 Iteration  3 RMS(Cart)=  0.00000013 RMS(Int)=  0.00014640
 Variable       Old X    -DE/DX   Delta X   Delta X   Delta X     New X
                                 (Linear)    (Quad)   (Total)
    R1        2.63647   0.00402   0.00000   0.00842   0.00842   2.64489
    R2        2.63584   0.00433   0.00000   0.00890   0.00884   2.64468
    R3        2.07796  -0.00818   0.00000  -0.02327  -0.02327   2.05469
    R4        2.63562   0.00341   0.00000   0.00726   0.00733   2.64295
    R5        2.91018  -0.01018   0.00000  -0.03403  -0.03403   2.87615
    R6        2.63697   0.00304   0.00000   0.00650   0.00656   2.64353
    R7        2.70231  -0.02453   0.00000  -0.05785  -0.05785   2.64446
    R8        2.63584   0.00409   0.00000   0.00853   0.00853   2.64437
    R9        2.91018  -0.01022   0.00000  -0.03414  -0.03414   2.87604
   R10        2.63643   0.00425   0.00000   0.00874   0.00868   2.64511
   R11        2.07825  -0.00825   0.00000  -0.02350  -0.02350   2.05474
   R12        2.91018  -0.00875   0.00000  -0.02923  -0.02923   2.88094
   R13        1.81414   0.01107   0.00000   0.01946   0.01946   1.83360
   R14        2.02201   0.01732   0.00000   0.04482   0.04482   2.06683
   R15        2.02201   0.01814   0.00000   0.04696   0.04696   2.06896
   R16        2.02201   0.01660   0.00000   0.04295   0.04295   2.06496
   R17        2.02201   0.01814   0.00000   0.04696   0.04696   2.06897
   R18        2.02201   0.01732   0.00000   0.04484   0.04484   2.06684
   R19        2.02201   0.01659   0.00000   0.04293   0.04293   2.06494
   R20        2.02201   0.01713   0.00000   0.04434   0.04434   2.06635
   R21        2.02201   0.01883   0.00000   0.04873   0.04873   2.07074
   R22        2.02201   0.01710   0.00000   0.04426   0.04426   2.06626
    A1        2.09437   0.00625   0.00000   0.02536   0.02536   2.11973
    A2        2.09435  -0.00376   0.00000  -0.01636  -0.01636   2.07799
    A3        2.09447  -0.00248   0.00000  -0.00901  -0.00901   2.08546
    A4        2.09455  -0.00745   0.00000  -0.02889  -0.02876   2.06578
    A5        2.09406   0.00620   0.00000   0.02382   0.02375   2.11781
    A6        2.09458   0.00125   0.00000   0.00507   0.00500   2.09958
    A7        2.09429   0.00834   0.00000   0.03114   0.03094   2.12523
    A8        2.09462  -0.00418   0.00000  -0.01559  -0.01605   2.07857
    A9        2.09427  -0.00417   0.00000  -0.01554  -0.01601   2.07827
   A10        2.09429  -0.00738   0.00000  -0.02867  -0.02855   2.06574
   A11        2.09407   0.00130   0.00000   0.00531   0.00524   2.09931
   A12        2.09483   0.00607   0.00000   0.02337   0.02330   2.11813
   A13        2.09448   0.00625   0.00000   0.02531   0.02531   2.11978
   A14        2.09459  -0.00379   0.00000  -0.01646  -0.01646   2.07814
   A15        2.09411  -0.00246   0.00000  -0.00885  -0.00885   2.08526
   A16        2.09440  -0.00602   0.00000  -0.02425  -0.02433   2.07007
   A17        2.09453   0.00304   0.00000   0.01225   0.01227   2.10680
   A18        2.09426   0.00298   0.00000   0.01200   0.01202   2.10627
   A19        1.91114  -0.00598   0.00000  -0.03437  -0.03437   1.87677
   A20        1.91063   0.00363   0.00000   0.02037   0.02018   1.93082
   A21        1.91063   0.00468   0.00000   0.02569   0.02550   1.93613
   A22        1.91063   0.00189   0.00000   0.01248   0.01229   1.92292
   A23        1.91063  -0.00486   0.00000  -0.03123  -0.03140   1.87923
   A24        1.91063  -0.00226   0.00000  -0.01062  -0.01081   1.89983
   A25        1.91063  -0.00307   0.00000  -0.01669  -0.01689   1.89375
   A26        1.91063   0.00469   0.00000   0.02579   0.02559   1.93623
   A27        1.91063   0.00363   0.00000   0.02037   0.02019   1.93082
   A28        1.91063   0.00188   0.00000   0.01247   0.01227   1.92290
   A29        1.91063  -0.00487   0.00000  -0.03126  -0.03143   1.87920
   A30        1.91063  -0.00308   0.00000  -0.01672  -0.01691   1.89372
   A31        1.91063  -0.00226   0.00000  -0.01065  -0.01083   1.89980
   A32        1.91063   0.00372   0.00000   0.02185   0.02159   1.93222
   A33        1.91063   0.00392   0.00000   0.02146   0.02125   1.93188
   A34        1.91063   0.00372   0.00000   0.02191   0.02165   1.93228
   A35        1.91063  -0.00406   0.00000  -0.02441  -0.02461   1.88602
   A36        1.91063  -0.00326   0.00000  -0.01663  -0.01692   1.89371
   A37        1.91063  -0.00404   0.00000  -0.02420  -0.02441   1.88623
    D1        0.00056   0.00001   0.00000  -0.00012  -0.00006   0.00050
    D2        3.14078  -0.00009   0.00000  -0.00370  -0.00364   3.13713
    D3       -3.14112  -0.00002   0.00000  -0.00057  -0.00053   3.14153
    D4       -0.00091  -0.00012   0.00000  -0.00416  -0.00412  -0.00502
    D5        0.00026  -0.00025   0.00000  -0.00629  -0.00630  -0.00604
    D6        3.14140  -0.00051   0.00000  -0.01525  -0.01521   3.12619
    D7       -3.14124  -0.00022   0.00000  -0.00583  -0.00582   3.13612
    D8       -0.00010  -0.00048   0.00000  -0.01480  -0.01474  -0.01483
    D9       -0.00099   0.00021   0.00000   0.00620   0.00640   0.00541
   D10        3.14093  -0.00154   0.00000  -0.04511  -0.04521   3.09571
   D11       -3.14120   0.00031   0.00000   0.00978   0.00993  -3.13127
   D12        0.00072  -0.00145   0.00000  -0.04154  -0.04169  -0.04097
   D13        2.06147   0.00039   0.00000   0.00404   0.00408   2.06555
   D14       -2.12732  -0.00047   0.00000  -0.00597  -0.00594  -2.13327
   D15       -0.03293   0.00014   0.00000   0.00109   0.00112  -0.03181
   D16       -1.08151   0.00029   0.00000   0.00043   0.00041  -1.08110
   D17        1.01289  -0.00058   0.00000  -0.00959  -0.00962   1.00327
   D18        3.10728   0.00003   0.00000  -0.00252  -0.00256   3.10473
   D19        0.00060  -0.00020   0.00000  -0.00591  -0.00611  -0.00552
   D20       -3.14153  -0.00032   0.00000  -0.01004  -0.01019   3.13147
   D21       -3.14132   0.00156   0.00000   0.04539   0.04549  -3.09583
   D22       -0.00026   0.00144   0.00000   0.04126   0.04142   0.04115
   D23        1.56987   0.00088   0.00000   0.02559   0.02504   1.59491
   D24       -1.57140  -0.00088   0.00000  -0.02573  -0.02518  -1.59657
   D25        0.00023  -0.00003   0.00000  -0.00046  -0.00051  -0.00028
   D26       -3.14158   0.00001   0.00000   0.00023   0.00020  -3.14138
   D27       -3.14083   0.00009   0.00000   0.00368   0.00362  -3.13721
   D28        0.00054   0.00012   0.00000   0.00437   0.00433   0.00487
   D29       -1.01217   0.00059   0.00000   0.00981   0.00985  -1.00232
   D30        1.08222  -0.00028   0.00000  -0.00023  -0.00020   1.08202
   D31       -3.10657  -0.00003   0.00000   0.00270   0.00274  -3.10382
   D32        2.12889   0.00047   0.00000   0.00567   0.00563   2.13452
   D33       -2.05990  -0.00040   0.00000  -0.00438  -0.00442  -2.06432
   D34        0.03449  -0.00015   0.00000  -0.00144  -0.00147   0.03302
   D35       -0.00066   0.00026   0.00000   0.00656   0.00658   0.00592
   D36        3.14138   0.00051   0.00000   0.01553   0.01549  -3.12631
   D37        3.14116   0.00022   0.00000   0.00587   0.00586  -3.13617
   D38        0.00001   0.00048   0.00000   0.01484   0.01478   0.01479
   D39        2.60703   0.00041   0.00000   0.00767   0.00777   2.61480
   D40       -1.58176   0.00012   0.00000   0.00430   0.00437  -1.57739
   D41        0.51264  -0.00015   0.00000   0.00123   0.00126   0.51390
   D42       -0.53501   0.00015   0.00000  -0.00131  -0.00134  -0.53635
   D43        1.55939  -0.00014   0.00000  -0.00468  -0.00475   1.55464
   D44       -2.62940  -0.00041   0.00000  -0.00775  -0.00785  -2.63725
         Item               Value     Threshold  Converged?
 Maximum Force            0.024527     0.000450     NO 
 RMS     Force            0.006784     0.000300     NO 
 Maximum Displacement     0.083269     0.001800     NO 
 RMS     Displacement     0.025744     0.001200     NO 
 Predicted change in Energy=-7.414172D-03
 GradGradGradGradGradGradGradGradGradGradGradGradGradGradGradGradGradGrad

                          Input orientation:                          
 ---------------------------------------------------------------------
 Center     Atomic      Atomic             Coordinates (Angstroms)
 Number     Number       Type             X           Y           Z
 ---------------------------------------------------------------------
      1          6           0        1.367625   -0.936684    0.004225
      2          6           0        2.767075   -0.955215   -0.006769
      3          6           0        3.447619    0.266597   -0.016070
      4          6           0        2.767048    1.488757   -0.008188
      5          6           0        1.367873    1.470322    0.002692
      6          6           0        0.653253    0.266764    0.005398
      7          1           0        0.826999   -1.880019    0.011468
      8          1           0        0.827149    2.413643    0.008696
      9          8           0        4.846281    0.266765    0.028967
     10          1           0        5.168180    0.265491   -0.886381
     11          6           0        3.541937    2.798654   -0.005421
     12          1           0        4.215648    2.845975    0.854865
     13          1           0        4.150935    2.894770   -0.910173
     14          1           0        2.851821    3.644688    0.039592
     15          6           0        3.541502   -2.265447   -0.002224
     16          1           0        4.151368   -2.362594   -0.906282
     17          1           0        4.214357   -2.312354    0.858765
     18          1           0        2.851022   -3.111168    0.042812
     19          6           0       -0.871256    0.267248   -0.002741
     20          1           0       -1.260394    1.149384    0.513083
     21          1           0       -1.252905    0.278378   -1.029858
     22          1           0       -1.260903   -0.625353    0.494253
 ---------------------------------------------------------------------
                    Distance matrix (angstroms):
                    1          2          3          4          5
     1  C    0.000000
     2  C    1.399616   0.000000
     3  C    2.403055   1.398589   0.000000
     4  C    2.800233   2.443973   1.398898   0.000000
     5  C    2.407007   2.800194   2.403050   1.399339   0.000000
     6  C    1.399506   2.441645   2.794449   2.441635   1.399730
     7  H    1.087294   2.149300   3.387678   3.887522   3.393731
     8  H    3.393645   3.887513   3.387814   2.149165   1.087324
     9  O    3.681026   2.411972   1.399387   2.412022   3.680837
    10  H    4.084437   2.833575   1.928153   2.834261   4.084655
    11  C    4.322092   3.833008   2.533836   1.521937   2.547761
    12  H    4.810752   4.158103   2.828708   2.164566   3.275430
    13  H    4.823172   4.189701   2.863804   2.169238   3.256963
    14  H    4.815918   4.600917   3.430681   2.158126   2.632742
    15  C    2.547822   1.521994   2.533821   3.833257   4.322113
    16  H    3.257525   2.169356   2.863631   4.189967   4.823415
    17  H    3.275147   2.164624   2.829171   4.158696   4.810818
    18  H    2.632553   2.158156   3.430553   4.600975   4.815745
    19  C    2.542064   3.838214   4.318896   3.837886   2.541873
    20  H    3.393685   4.573849   4.819202   4.075192   2.696533
    21  H    3.068042   4.327667   4.808620   4.320746   3.058655
    22  H    2.691879   4.072400   4.819355   4.576713   3.397640
                    6          7          8          9         10
     6  C    0.000000
     7  H    2.153811   0.000000
     8  H    2.153913   4.293663   0.000000
     9  O    4.193094   4.556711   4.556634   0.000000
    10  H    4.602156   4.924957   4.925472   0.970300   0.000000
    11  C    3.841234   5.409358   2.741990   2.848325   3.136506
    12  H    4.479351   5.876162   3.519210   2.780671   3.255481
    13  H    4.469728   5.890381   3.481862   2.876091   2.819302
    14  H    4.030539   5.884138   2.369752   3.922798   4.200228
    15  C    3.841112   2.741764   5.409410   2.848775   3.135835
    16  H    4.470067   3.482323   5.890676   2.875956   2.818002
    17  H    4.479012   3.518383   5.876295   2.782040   3.255856
    18  H    4.030139   2.369257   5.883941   3.923224   4.199340
    19  C    1.524530   2.737705   2.737101   5.717625   6.103738
    20  H    2.167673   3.712965   2.492106   6.189092   6.638248
    21  H    2.169176   3.173175   3.156671   6.190421   6.422701
    22  H    2.167682   2.483265   3.719035   6.189512   6.635727
                   11         12         13         14         15
    11  C    0.000000
    12  H    1.093718   0.000000
    13  H    1.094848   1.766898   0.000000
    14  H    1.092730   1.778380   1.775423   0.000000
    15  C    5.064102   5.226443   5.274810   5.950387   0.000000
    16  H    5.274603   5.498633   5.257366   6.218596   1.094849
    17  H    5.226984   5.158330   5.499755   6.165541   1.093726
    18  H    5.950268   6.165160   6.218461   6.755857   1.092720
    19  C    5.087661   5.767314   5.740184   5.026947   5.087925
    20  H    5.104050   5.743020   5.861273   4.833327   5.914797
    21  H    5.512873   6.328492   6.005108   5.415214   5.523895
    22  H    5.919525   6.494057   6.606942   5.945962   5.098970
                   16         17         18         19         20
    16  H    0.000000
    17  H    1.766886   0.000000
    18  H    1.775400   1.778361   0.000000
    19  C    5.741011   5.767148   5.027039   0.000000
    20  H    6.605737   6.486603   5.939461   1.093465   0.000000
    21  H    6.016326   6.337960   5.429720   1.095787   1.771827
    22  H    5.854245   5.740846   4.826075   1.093419   1.774837
                   21         22
    21  H    0.000000
    22  H    1.771922   0.000000
 Stoichiometry    C9H12O
 Framework group  C1[X(C9H12O)]
 Deg. of freedom    60
 Full point group                 C1      NOp   1
 Largest Abelian subgroup         C1      NOp   1
 Largest concise Abelian subgroup C1      NOp   1
                         Standard orientation:                         
 ---------------------------------------------------------------------
 Center     Atomic      Atomic             Coordinates (Angstroms)
 Number     Number       Type             X           Y           Z
 ---------------------------------------------------------------------
      1          6           0       -1.007231    1.203660   -0.005546
      2          6           0        0.392265    1.221911   -0.007654
      3          6           0        1.072620   -0.000040   -0.005493
      4          6           0        0.391760   -1.222062   -0.007764
      5          6           0       -1.007452   -1.203347   -0.005522
      6          6           0       -1.721825    0.000352   -0.000779
      7          1           0       -1.547710    2.147105   -0.007133
      8          1           0       -1.548399   -2.146558   -0.007050
      9          8           0        2.470799   -0.000453   -0.063634
     10          1           0        2.801261    0.000183    0.848659
     11          6           0        1.166325   -2.532108   -0.018611
     12          1           0        1.831936   -2.579021   -0.885201
     13          1           0        1.783754   -2.628912    0.880335
     14          1           0        0.475647   -3.377979   -0.057686
     15          6           0        1.166879    2.531994   -0.018634
     16          1           0        1.785209    2.628454    0.879731
     17          1           0        1.831647    2.579309   -0.885860
     18          1           0        0.476177    3.377878   -0.056669
     19          6           0       -3.246190    0.000161    0.021643
     20          1           0       -3.640322   -0.881574   -0.491064
     21          1           0       -3.618201   -0.011539    1.052283
     22          1           0       -3.640297    0.893151   -0.471120
 ---------------------------------------------------------------------
 Rotational constants (GHZ):           1.7354558           1.2449671           0.7365997
 Standard basis: 6-31G(d) (6D, 7F)
 There are   174 symmetry adapted cartesian basis functions of A   symmetry.
 There are   174 symmetry adapted basis functions of A   symmetry.
   174 basis functions,   328 primitive gaussians,   174 cartesian basis functions
    37 alpha electrons       37 beta electrons
       nuclear repulsion energy       512.5642461599 Hartrees.
 NAtoms=   22 NActive=   22 NUniq=   22 SFac= 1.00D+00 NAtFMM=   60 NAOKFM=F Big=F
 Integral buffers will be    131072 words long.
 Raffenetti 2 integral format.
 Two-electron integral symmetry is turned on.
 ------------------------------------------------------------------------------
 Polarizable Continuum Model (PCM)
 =================================
 Model                : PCM.
 Atomic radii         : SMD-Coulomb.
 Polarization charges : Total charges.
 Charge compensation  : None.
 Solution method      : On-the-fly selection.
 Cavity type          : VdW (van der Waals Surface) (Alpha=1.000).
 Cavity algorithm     : GePol (No added spheres)
                        Default sphere list used, NSphG=   22.
                        Lebedev-Laikov grids with approx.  5.0 points / Ang**2.
                        Smoothing algorithm: York/Karplus (Gamma=1.0000).
                        Polarization charges: spherical gaussians, with
                                              point-specific exponents (IZeta= 3).
                        Self-potential: point-specific (ISelfS= 7).
                        Self-field    : sphere-specific E.n sum rule (ISelfD= 2).
 1st derivatives      : Analytical E(r).r(x)/FMM algorithm (CHGder, D1EAlg=3).
                        Cavity 1st derivative terms included.
 Solvent              : Toluene, Eps=   2.374100 Eps(inf)=   2.238315
 ------------------------------------------------------------------------------
 ------------------------------------------------------------------------------
 Atomic radii for non-electrostatic terms: SMD-CDS.
 ------------------------------------------------------------------------------
 Nuclear repulsion after PCM non-electrostatic terms =      512.5575216601 Hartrees.
 One-electron integrals computed using PRISM.
 NBasis=   174 RedAO= T EigKep=  3.37D-04  NBF=   174
 NBsUse=   174 1.00D-06 EigRej= -1.00D+00 NBFU=   174
 Initial guess from the checkpoint file:  "MeMebz.chk"
 B after Tr=     0.000000   -0.000000    0.000000
         Rot=    1.000000   -0.000002    0.000209    0.000130 Ang=  -0.03 deg.
 ExpMin= 1.61D-01 ExpMax= 5.48D+03 ExpMxC= 8.25D+02 IAcc=3 IRadAn=         5 AccDes= 0.00D+00
 Harris functional with IExCor=  402 and IRadAn=       5 diagonalized for initial guess.
 HarFok:  IExCor=  402 AccDes= 0.00D+00 IRadAn=         5 IDoV= 1 UseB2=F ITyADJ=14
 ICtDFT=  3500011 ScaDFX=  1.000000  1.000000  1.000000  1.000000
 FoFCou: FMM=F IPFlag=           0 FMFlag=      100000 FMFlg1=           0
         NFxFlg=           0 DoJE=T BraDBF=F KetDBF=T FulRan=T
         wScrn=  0.000000 ICntrl=       500 IOpCl=  0 I1Cent=   200000004 NGrid=           0
         NMat0=    1 NMatS0=      1 NMatT0=    0 NMatD0=    1 NMtDS0=    0 NMtDT0=    0
 Petite list used in FoFCou.
 Requested convergence on RMS density matrix=1.00D-08 within 128 cycles.
 Requested convergence on MAX density matrix=1.00D-06.
 Requested convergence on             energy=1.00D-06.
 No special actions if energy rises.
 Inv3:  Mode=1 IEnd=     8477283.
 Iteration    1 A*A^-1 deviation from unit magnitude is 4.22D-15 for   1657.
 Iteration    1 A*A^-1 deviation from orthogonality  is 2.15D-15 for   1666   1570.
 Iteration    1 A^-1*A deviation from unit magnitude is 4.66D-15 for   1657.
 Iteration    1 A^-1*A deviation from orthogonality  is 2.17D-15 for   1678   1438.
 Error on total polarization charges =  0.02301
 SCF Done:  E(RB3LYP) =  -425.422922798     A.U. after   11 cycles
            NFock= 11  Conv=0.44D-08     -V/T= 2.0098
 SMD-CDS (non-electrostatic) energy       (kcal/mol) =      -4.22
 (included in total energy above)
 D1PCM: PCM CHGder 1st derivatives, ID1Alg=3 FixD1E=F DoIter=F DoCFld=F I1PDM=0.
 Calling FoFJK, ICntrl=      2127 FMM=F ISym2X=0 I1Cent= 0 IOpClX= 0 NMat=1 NMatS=1 NMatT=0.
 ***** Axes restored to original set *****
 -------------------------------------------------------------------
 Center     Atomic                   Forces (Hartrees/Bohr)
 Number     Number              X              Y              Z
 -------------------------------------------------------------------
      1        6           0.001213892    0.002716394   -0.000296537
      2        6           0.001693237   -0.008484941    0.000399911
      3        6           0.004265131    0.000101151    0.000314112
      4        6           0.001831190    0.008344429    0.000366140
      5        6           0.001087467   -0.002731162   -0.000279604
      6        6          -0.007368816    0.000034231    0.000590113
      7        1          -0.000263789   -0.000612797    0.000202181
      8        1          -0.000249790    0.000613536    0.000203660
      9        8          -0.004860294   -0.000008356    0.000068692
     10        1           0.002472798   -0.000005801   -0.000998204
     11        6          -0.006179955   -0.009251754    0.000458701
     12        1           0.001562749    0.001208449    0.000128066
     13        1           0.001604731    0.001513861   -0.000533778
     14        1           0.000430065    0.001587984   -0.000181723
     15        6          -0.006162148    0.009284887    0.000437704
     16        1           0.001600423   -0.001510955   -0.000531464
     17        1           0.001562061   -0.001207084    0.000131986
     18        1           0.000426415   -0.001590953   -0.000176979
     19        6           0.010985455   -0.000026348    0.000564258
     20        1          -0.001802377    0.000583287   -0.000022360
     21        1          -0.002055674    0.000016253   -0.000812642
     22        1          -0.001792770   -0.000574313   -0.000032232
 -------------------------------------------------------------------
 Cartesian Forces:  Max     0.010985455 RMS     0.003199048

 GradGradGradGradGradGradGradGradGradGradGradGradGradGradGradGradGradGrad
 Berny optimization.
 Using GEDIIS/GDIIS optimizer.
 FormGI is forming the generalized inverse of G from B-inverse, IUseBI=4.
 Internal  Forces:  Max     0.005593256 RMS     0.001365218
 Search for a local minimum.
 Step number   2 out of a maximum of  113
 All quantities printed in internal units (Hartrees-Bohrs-Radians)
 Mixed Optimization -- RFO/linear search
 Update second derivatives using D2CorX and points    1    2
 DE= -7.95D-03 DEPred=-7.41D-03 R= 1.07D+00
 TightC=F SS=  1.41D+00  RLast= 2.32D-01 DXNew= 5.0454D-01 6.9657D-01
 Trust test= 1.07D+00 RLast= 2.32D-01 DXMaxT set to 5.05D-01
 ITU=  1  0
 Use linear search instead of GDIIS.
     Eigenvalues ---    0.00237   0.00237   0.00237   0.01295   0.01311
     Eigenvalues ---    0.01398   0.01403   0.02033   0.02153   0.02154
     Eigenvalues ---    0.02155   0.02156   0.02163   0.06976   0.06999
     Eigenvalues ---    0.07005   0.07006   0.07028   0.07031   0.14543
     Eigenvalues ---    0.16000   0.16000   0.16000   0.16000   0.16000
     Eigenvalues ---    0.16000   0.16000   0.16000   0.16000   0.16000
     Eigenvalues ---    0.16392   0.23009   0.23456   0.24908   0.24968
     Eigenvalues ---    0.24999   0.25000   0.25052   0.26748   0.28519
     Eigenvalues ---    0.28520   0.33717   0.33900   0.37212   0.37230
     Eigenvalues ---    0.37230   0.37230   0.37230   0.37230   0.37230
     Eigenvalues ---    0.37230   0.38708   0.40900   0.42440   0.43138
     Eigenvalues ---    0.46324   0.46455   0.46466   0.46526   0.55350
 RFO step:  Lambda=-7.34886463D-04 EMin= 2.36824184D-03
 Quartic linear search produced a step of  0.16709.
 Iteration  1 RMS(Cart)=  0.00951155 RMS(Int)=  0.00013927
 Iteration  2 RMS(Cart)=  0.00013194 RMS(Int)=  0.00005242
 Iteration  3 RMS(Cart)=  0.00000002 RMS(Int)=  0.00005242
 Variable       Old X    -DE/DX   Delta X   Delta X   Delta X     New X
                                 (Linear)    (Quad)   (Total)
    R1        2.64489   0.00010   0.00141  -0.00077   0.00064   2.64553
    R2        2.64468  -0.00006   0.00148  -0.00154  -0.00008   2.64460
    R3        2.05469   0.00066  -0.00389   0.00512   0.00123   2.05592
    R4        2.64295   0.00229   0.00122   0.00519   0.00643   2.64938
    R5        2.87615  -0.00559  -0.00569  -0.01867  -0.02436   2.85179
    R6        2.64353   0.00219   0.00110   0.00505   0.00616   2.64970
    R7        2.64446  -0.00242  -0.00967   0.00013  -0.00953   2.63492
    R8        2.64437   0.00018   0.00143  -0.00057   0.00085   2.64522
    R9        2.87604  -0.00557  -0.00570  -0.01856  -0.02426   2.85178
   R10        2.64511  -0.00010   0.00145  -0.00163  -0.00020   2.64491
   R11        2.05474   0.00066  -0.00393   0.00513   0.00120   2.05594
   R12        2.88094  -0.00533  -0.00488  -0.01820  -0.02308   2.85786
   R13        1.83360   0.00176   0.00325   0.00136   0.00461   1.83822
   R14        2.06683   0.00111   0.00749  -0.00195   0.00554   2.07237
   R15        2.06896   0.00147   0.00785  -0.00110   0.00674   2.07571
   R16        2.06496   0.00095   0.00718  -0.00223   0.00494   2.06990
   R17        2.06897   0.00147   0.00785  -0.00111   0.00674   2.07570
   R18        2.06684   0.00112   0.00749  -0.00194   0.00555   2.07239
   R19        2.06494   0.00095   0.00717  -0.00222   0.00495   2.06990
   R20        2.06635   0.00110   0.00741  -0.00193   0.00548   2.07183
   R21        2.07074   0.00148   0.00814  -0.00129   0.00685   2.07759
   R22        2.06626   0.00109   0.00739  -0.00194   0.00545   2.07171
    A1        2.11973   0.00137   0.00424   0.00316   0.00740   2.12713
    A2        2.07799  -0.00076  -0.00273  -0.00168  -0.00442   2.07357
    A3        2.08546  -0.00061  -0.00150  -0.00148  -0.00299   2.08248
    A4        2.06578  -0.00081  -0.00481   0.00014  -0.00463   2.06116
    A5        2.11781   0.00082   0.00397   0.00071   0.00466   2.12247
    A6        2.09958  -0.00001   0.00084  -0.00085  -0.00003   2.09955
    A7        2.12523  -0.00024   0.00517  -0.00406   0.00104   2.12627
    A8        2.07857   0.00009  -0.00268   0.00171  -0.00111   2.07746
    A9        2.07827   0.00013  -0.00267   0.00187  -0.00094   2.07732
   A10        2.06574  -0.00081  -0.00477   0.00016  -0.00458   2.06116
   A11        2.09931   0.00003   0.00088  -0.00072   0.00014   2.09944
   A12        2.11813   0.00078   0.00389   0.00057   0.00445   2.12258
   A13        2.11978   0.00135   0.00423   0.00311   0.00734   2.12713
   A14        2.07814  -0.00077  -0.00275  -0.00173  -0.00449   2.07365
   A15        2.08526  -0.00059  -0.00148  -0.00138  -0.00286   2.08240
   A16        2.07007  -0.00086  -0.00406  -0.00252  -0.00661   2.06346
   A17        2.10680   0.00043   0.00205   0.00120   0.00324   2.11004
   A18        2.10627   0.00043   0.00201   0.00126   0.00325   2.10953
   A19        1.87677   0.00367  -0.00574   0.03091   0.02516   1.90193
   A20        1.93082   0.00153   0.00337   0.00849   0.01176   1.94258
   A21        1.93613   0.00172   0.00426   0.00840   0.01258   1.94871
   A22        1.92292   0.00131   0.00205   0.00904   0.01098   1.93390
   A23        1.87923  -0.00196  -0.00525  -0.01228  -0.01759   1.86164
   A24        1.89983  -0.00123  -0.00181  -0.00582  -0.00774   1.89208
   A25        1.89375  -0.00155  -0.00282  -0.00888  -0.01180   1.88195
   A26        1.93623   0.00171   0.00428   0.00834   0.01253   1.94876
   A27        1.93082   0.00153   0.00337   0.00848   0.01175   1.94257
   A28        1.92290   0.00131   0.00205   0.00905   0.01098   1.93388
   A29        1.87920  -0.00196  -0.00525  -0.01224  -0.01757   1.86163
   A30        1.89372  -0.00154  -0.00283  -0.00885  -0.01177   1.88195
   A31        1.89980  -0.00123  -0.00181  -0.00581  -0.00774   1.89206
   A32        1.93222   0.00151   0.00361   0.00867   0.01215   1.94438
   A33        1.93188   0.00161   0.00355   0.00823   0.01168   1.94357
   A34        1.93228   0.00150   0.00362   0.00860   0.01210   1.94438
   A35        1.88602  -0.00173  -0.00411  -0.01030  -0.01450   1.87152
   A36        1.89371  -0.00135  -0.00283  -0.00613  -0.00910   1.88462
   A37        1.88623  -0.00172  -0.00408  -0.01022  -0.01438   1.87184
    D1        0.00050  -0.00004  -0.00001  -0.00309  -0.00308  -0.00258
    D2        3.13713  -0.00002  -0.00061  -0.00073  -0.00133   3.13581
    D3        3.14153   0.00003  -0.00009   0.00076   0.00068  -3.14098
    D4       -0.00502   0.00005  -0.00069   0.00311   0.00243  -0.00259
    D5       -0.00604  -0.00002  -0.00105   0.00169   0.00063  -0.00541
    D6        3.12619  -0.00013  -0.00254  -0.00620  -0.00872   3.11747
    D7        3.13612  -0.00008  -0.00097  -0.00217  -0.00315   3.13298
    D8       -0.01483  -0.00020  -0.00246  -0.01006  -0.01250  -0.02733
    D9        0.00541   0.00009   0.00107   0.00441   0.00551   0.01092
   D10        3.09571  -0.00025  -0.00755  -0.00637  -0.01395   3.08177
   D11       -3.13127   0.00007   0.00166   0.00208   0.00377  -3.12750
   D12       -0.04097  -0.00027  -0.00697  -0.00870  -0.01569  -0.05666
   D13        2.06555   0.00010   0.00068  -0.00571  -0.00501   2.06054
   D14       -2.13327  -0.00025  -0.00099  -0.01011  -0.01112  -2.14438
   D15       -0.03181   0.00006   0.00019  -0.00598  -0.00578  -0.03759
   D16       -1.08110   0.00012   0.00007  -0.00331  -0.00323  -1.08433
   D17        1.00327  -0.00023  -0.00161  -0.00771  -0.00934   0.99393
   D18        3.10473   0.00008  -0.00043  -0.00358  -0.00400   3.10072
   D19       -0.00552  -0.00009  -0.00102  -0.00427  -0.00532  -0.01084
   D20        3.13147  -0.00008  -0.00170  -0.00222  -0.00395   3.12751
   D21       -3.09583   0.00026   0.00760   0.00652   0.01414  -3.08169
   D22        0.04115   0.00027   0.00692   0.00857   0.01551   0.05666
   D23        1.59491   0.00017   0.00418   0.00501   0.00909   1.60400
   D24       -1.59657  -0.00018  -0.00421  -0.00565  -0.00976  -1.60633
   D25       -0.00028   0.00003  -0.00009   0.00279   0.00269   0.00241
   D26       -3.14138  -0.00003   0.00003  -0.00096  -0.00093   3.14087
   D27       -3.13721   0.00002   0.00060   0.00072   0.00131  -3.13590
   D28        0.00487  -0.00004   0.00072  -0.00303  -0.00231   0.00256
   D29       -1.00232   0.00023   0.00165   0.00733   0.00900  -0.99332
   D30        1.08202  -0.00012  -0.00003   0.00295   0.00291   1.08493
   D31       -3.10382  -0.00008   0.00046   0.00321   0.00367  -3.10015
   D32        2.13452   0.00024   0.00094   0.00944   0.01040   2.14492
   D33       -2.06432  -0.00011  -0.00074   0.00506   0.00430  -2.06002
   D34        0.03302  -0.00007  -0.00025   0.00532   0.00507   0.03808
   D35        0.00592   0.00002   0.00110  -0.00154  -0.00043   0.00549
   D36       -3.12631   0.00014   0.00259   0.00635   0.00892  -3.11739
   D37       -3.13617   0.00008   0.00098   0.00222   0.00321  -3.13296
   D38        0.01479   0.00020   0.00247   0.01011   0.01256   0.02735
   D39        2.61480   0.00020   0.00130   0.00578   0.00712   2.62193
   D40       -1.57739   0.00006   0.00073   0.00390   0.00465  -1.57274
   D41        0.51390  -0.00008   0.00021   0.00208   0.00230   0.51620
   D42       -0.53635   0.00008  -0.00022  -0.00230  -0.00253  -0.53888
   D43        1.55464  -0.00007  -0.00079  -0.00418  -0.00500   1.54965
   D44       -2.63725  -0.00020  -0.00131  -0.00599  -0.00735  -2.64461
         Item               Value     Threshold  Converged?
 Maximum Force            0.005593     0.000450     NO 
 RMS     Force            0.001365     0.000300     NO 
 Maximum Displacement     0.050695     0.001800     NO 
 RMS     Displacement     0.009539     0.001200     NO 
 Predicted change in Energy=-5.190571D-04
 GradGradGradGradGradGradGradGradGradGradGradGradGradGradGradGradGradGrad

                          Input orientation:                          
 ---------------------------------------------------------------------
 Center     Atomic      Atomic             Coordinates (Angstroms)
 Number     Number       Type             X           Y           Z
 ---------------------------------------------------------------------
      1          6           0        1.366742   -0.934259    0.007293
      2          6           0        2.766403   -0.958525   -0.007948
      3          6           0        3.447881    0.266606   -0.022721
      4          6           0        2.766456    1.491977   -0.009499
      5          6           0        1.366959    1.467889    0.005873
      6          6           0        0.648430    0.266788    0.011115
      7          1           0        0.826157   -1.878317    0.019433
      8          1           0        0.826402    2.411992    0.016918
      9          8           0        4.841032    0.266666    0.034864
     10          1           0        5.195007    0.265026   -0.871186
     11          6           0        3.535367    2.790496   -0.007764
     12          1           0        4.225323    2.843805    0.842978
     13          1           0        4.144637    2.901953   -0.914895
     14          1           0        2.853683    3.646209    0.045583
     15          6           0        3.535033   -2.257214   -0.004555
     16          1           0        4.144765   -2.369728   -0.911242
     17          1           0        4.224524   -2.309842    0.846620
     18          1           0        2.853129   -3.112714    0.049297
     19          6           0       -0.863814    0.267255   -0.003632
     20          1           0       -1.268664    1.148764    0.507304
     21          1           0       -1.254209    0.278594   -1.031333
     22          1           0       -1.269006   -0.624821    0.488205
 ---------------------------------------------------------------------
                    Distance matrix (angstroms):
                    1          2          3          4          5
     1  C    0.000000
     2  C    1.399954   0.000000
     3  C    2.402939   1.401991   0.000000
     4  C    2.801090   2.450503   1.402158   0.000000
     5  C    2.402148   2.801093   2.402942   1.399789   0.000000
     6  C    1.399464   2.446950   2.799655   2.446946   1.399626
     7  H    1.087946   2.147399   3.387611   3.889021   3.389653
     8  H    3.389609   3.889037   3.387683   2.147308   1.087958
     9  O    3.676095   2.409775   1.394341   2.409818   3.675998
    10  H    4.106778   2.853134   1.942253   2.854080   4.107318
    11  C    4.310100   3.827071   2.525450   1.509099   2.539975
    12  H    4.810781   4.160557   2.827685   2.163896   3.280874
    13  H    4.825314   4.198259   2.868187   2.169598   3.258811
    14  H    4.815926   4.605872   3.432120   2.156700   2.637613
    15  C    2.540047   1.509104   2.525390   3.827162   4.310110
    16  H    3.259094   2.169635   2.867992   4.198291   4.825413
    17  H    3.280795   2.163899   2.827900   4.160858   4.810799
    18  H    2.637571   2.156694   3.432014   4.605882   4.815860
    19  C    2.533601   3.831584   4.311737   3.831298   2.533370
    20  H    3.396227   4.581258   4.827517   4.082533   2.701811
    21  H    3.069062   4.329331   4.809064   4.322291   3.059533
    22  H    2.697072   4.079467   4.827495   4.584048   3.400057
                    6          7          8          9         10
     6  C    0.000000
     7  H    2.152471   0.000000
     8  H    2.152581   4.290309   0.000000
     9  O    4.192669   4.551968   4.551922   0.000000
    10  H    4.631395   4.947118   4.948020   0.972742   0.000000
    11  C    3.834562   5.397998   2.735392   2.841882   3.142913
    12  H    4.486331   5.876307   3.524415   2.770160   3.244803
    13  H    4.474936   5.893748   3.481239   2.886476   2.838762
    14  H    4.035444   5.884890   2.373601   3.920584   4.213628
    15  C    3.834489   2.735352   5.398020   2.842034   3.141378
    16  H    4.475077   3.481494   5.893883   2.886257   2.836642
    17  H    4.486150   3.524110   5.876338   2.770817   3.243862
    18  H    4.035243   2.373446   5.884815   3.920737   4.211984
[...]
 82,-0.05001532,-0.01541897,0.01405201,0.05254708,-0.00013793,0.0000907
 6,-0.00001173,0.00022648,-0.00003343,-0.00031855,-0.00224059,0.0003789
 6,0.00099269,0.00205856,-0.00175904,0.00487509,0.00087295,0.00021631,-
 0.00036422,0.00012054,-0.00023525,-0.00026555,0.00001503,-0.00001127,0
 .00006430,0.00006504,0.00000613,0.00010590,0.00130245,0.00062476,0.000
 04736,0.00057151,-0.00142985,-0.00112261,-0.12177667,-0.01300146,-0.20
 758632,0.13448765,0.01521038,0.22419600,-0.00012764,0.00002200,0.00003
 120,-0.00029431,-0.00017178,-0.00010258,-0.00167669,0.00199370,-0.0005
 2433,-0.01178046,-0.00414372,0.01199462,0.00030110,-0.00247398,0.00056
 900,-0.00052595,-0.00038506,-0.00100299,-0.00000743,-0.00007158,0.0000
 6788,0.00012089,-0.00004408,0.00062823,0.00196172,-0.00020762,-0.00031
 569,0.00014530,0.00041585,0.00031287,-0.12403406,-0.00856302,0.1161978
 0,0.01286677,0.00166690,-0.01711052,0.13434077,-0.00079804,0.00000369,
 0.00020257,0.00017151,0.00074218,-0.00114220,-0.00320102,-0.00014257,0
 .00008789,-0.01710675,-0.00252463,0.02352761,0.00089639,-0.00240379,0.
 00065743,-0.00052679,-0.00068766,-0.00097089,-0.00000768,-0.00003005,0
 .00008078,-0.00016196,0.00018366,0.00030023,0.00208812,0.00164365,-0.0
 0044726,0.00098591,-0.00167904,0.00136835,-0.01125751,-0.05031576,0.01
 787254,0.00143814,-0.00045487,-0.00087761,0.01437323,0.05286661,0.0001
 3349,-0.00009228,-0.00002315,-0.00022452,0.00005676,-0.00030866,0.0023
 7418,-0.00051588,0.00087992,-0.00115595,0.00195292,0.00449067,-0.00090
 567,-0.00007101,-0.00033473,-0.00011037,0.00024856,-0.00020092,-0.0000
 1062,0.00001566,0.00006190,-0.00006835,-0.00000255,0.00007122,-0.00138
 951,-0.00059031,0.00015567,-0.00063947,0.00139267,-0.00108385,0.116248
 92,0.01526673,-0.22273458,0.01484486,0.00100585,-0.02215416,-0.1285292
 4,-0.01801654,0.24094377,-0.00001004,-0.00005515,0.00000215,0.00079797
 ,-0.00049266,-0.00001705,-0.00346124,-0.00279089,0.00012959,0.01190222
 ,-0.01582587,-0.00050231,0.00049106,-0.00183723,-0.00002884,0.00034603
 ,-0.00002897,-0.00001770,-0.00000730,0.00002329,0.00000149,0.00021249,
 0.00042111,0.00000631,0.00030450,0.00033634,0.00001527,0.00056849,-0.0
 0050712,-0.00006422,-0.15387832,0.13499336,0.00414693,-0.01225714,0.01
 457151,0.00152140,-0.01119849,0.01315126,-0.00055577,0.16629422,-0.000
 18888,0.00029139,0.00000889,0.00151419,-0.00073770,-0.00005178,-0.0041
 0124,-0.00324507,0.00010509,0.01757466,-0.02334482,-0.00069033,0.00282
 134,0.00190063,-0.00007535,-0.00017449,-0.00021504,0.00002015,-0.00007
 870,0.00002882,0.00000262,-0.00107574,0.00043780,0.00003486,-0.0006748
 1,0.00046094,0.00001988,-0.00026477,-0.00011268,0.00001431,0.13096860,
 -0.21310682,-0.00512924,-0.00194001,0.00273878,0.00088126,-0.00217296,
 0.00297809,-0.00072629,-0.14177747,0.23229682,-0.00000026,0.00000417,0
 .00004565,-0.00000794,0.00001210,0.00027151,0.00011440,0.00006859,0.00
 099779,-0.00031741,0.00040187,-0.00095888,-0.00000986,0.00006911,-0.00
 014909,-0.00001517,-0.00000281,-0.00010549,0.00000100,-0.00000071,0.00
 003364,0.00000158,-0.00000938,0.00038689,0.00000943,-0.00000375,0.0006
 4462,-0.00005975,0.00001943,-0.00131653,0.00412679,-0.00526517,-0.0477
 3329,-0.01702557,0.02168794,0.00151322,0.01782462,-0.02256917,0.000205
 32,-0.00463620,0.00558269,0.04637452,-0.01804064,0.03096154,0.00076858
 ,-0.11848210,0.04869793,0.00160650,0.01338649,-0.00809938,-0.00030367,
 -0.00238228,-0.00477467,0.00022647,-0.00157976,0.00081633,0.00004138,-
 0.00299531,-0.00234810,0.00029576,0.00117679,0.00132765,-0.00017976,0.
 00012340,0.00005862,-0.00002757,0.00021292,-0.00284458,-0.00013225,-0.
 00001757,-0.00008507,-0.00000786,0.00091258,-0.00103362,-0.00003843,-0
 .00002644,0.00001231,-0.00001727,-0.00002407,0.00001636,0.00001938,-0.
 00018280,-0.00044468,-0.00000016,0.56101897,0.00827819,-0.00169158,-0.
 00028772,0.05480491,-0.18632677,-0.00195670,0.01055984,-0.03117928,-0.
 00040604,-0.00360078,-0.00134483,0.00009624,-0.00071659,-0.00050268,0.
 00002862,-0.00222791,0.00223105,0.00006963,-0.00223659,0.00088102,0.00
 008681,0.00003057,0.00004569,0.00000161,0.00433299,0.00013655,-0.00012
 822,0.00072332,-0.00028163,-0.00002470,0.00084960,-0.00055850,-0.00002
 767,0.00003643,0.00006437,-0.00001879,0.00003747,0.00006351,0.00001720
 ,-0.00019348,-0.00024678,0.00000517,0.04632321,0.52479649,0.00072113,-
 0.00096991,0.00414375,0.00162227,-0.00173057,-0.07164446,-0.00030032,0
 .00015935,0.00415504,0.00022507,0.00013129,0.00541423,0.00004125,-0.00
 001691,-0.00071327,0.00042349,0.00000574,0.00829219,-0.00019054,-0.000
 03707,-0.00463777,-0.00002634,0.00000437,-0.00074028,-0.00009176,0.000
 09624,-0.00378259,-0.00000748,0.00000055,-0.00028427,-0.00003122,0.000
 03013,-0.00006463,-0.00001495,-0.00005366,0.00000430,0.00001792,0.0000
 5341,0.00000259,0.00000156,0.00001479,-0.00012004,-0.00044452,-0.00149
 298,0.54426150,0.00036375,0.00226459,0.00047060,-0.01173611,0.00445355
 ,0.01198031,-0.00113947,-0.00174926,-0.00046358,-0.00035225,0.00027869
 ,-0.00021249,-0.00005683,-0.00006918,0.00001626,-0.00052774,0.00036698
 ,-0.00103074,0.00013722,0.00008938,0.00063370,-0.00000460,0.00006565,0
 .00008187,0.00122146,0.00004278,-0.00018386,0.00002801,-0.00012621,0.0
 0012220,-0.00002130,-0.00003424,0.00001732,0.00002957,0.00002825,-0.00
 000041,0.00004228,0.00002612,-0.00000558,-0.00000415,0.00002003,0.0000
 1622,-0.12886686,0.00746262,0.12276395,0.13983229,-0.00049055,-0.00259
 698,-0.00043091,0.01770820,-0.00252849,-0.02424416,0.00262299,-0.00040
 067,-0.00006667,-0.00012995,0.00070903,0.00102795,0.00077006,-0.000119
 95,-0.00019736,0.00050318,-0.00051570,0.00115937,0.00015766,0.00017006
 ,-0.00036768,0.00000379,-0.00003627,-0.00005517,-0.00167710,0.00041155
 ,-0.00052771,-0.00007196,0.00010519,0.00031678,-0.00002551,0.00009937,
 -0.00006242,-0.00003753,-0.00005916,-0.00001765,-0.00003761,-0.0000381
 5,0.00002587,-0.00000580,0.00000575,-0.00002061,0.00904415,-0.05009453
 ,-0.01538783,-0.01384529,0.05237164,-0.00092074,0.00010103,-0.00031051
 ,-0.00105556,-0.00159679,0.00356204,0.00196169,0.00025966,0.00091402,-
 0.00016489,-0.00002906,-0.00016899,0.00011522,0.00005581,-0.00004193,-
 0.00009952,-0.00018456,-0.00023228,-0.00004176,0.00001676,0.00008583,-
 0.00000218,-0.00001682,0.00005138,-0.00082363,0.00050378,0.00001647,-0
 .00019251,0.00020035,0.00000573,0.00000931,0.00001025,-0.00000316,-0.0
 0000970,-0.00001715,-0.00001871,-0.00001096,-0.00002221,0.00002073,-0.
 00001214,-0.00001382,-0.00000545,0.12170328,-0.01462560,-0.22490902,-0
 .13405223,0.01543707,0.24258756,0.00039076,0.00225894,-0.00051294,-0.0
 1234736,0.00461469,-0.01094833,-0.00123642,-0.00177233,0.00058732,-0.0
 0032988,0.00027815,0.00022383,-0.00006292,-0.00007174,-0.00001326,-0.0
 0043922,0.00036343,0.00105108,0.00009847,0.00008969,-0.00063185,-0.000
 00954,0.00006794,-0.00007623,0.00129483,0.00001435,0.00010527,0.000031
 82,-0.00013874,-0.00012481,-0.00002349,-0.00003474,-0.00001532,0.00004
 343,0.00002762,0.00000443,0.00003013,0.00002903,-0.00000226,-0.0000043
 8,0.00002117,-0.00001596,-0.14448761,0.00892702,-0.12775821,0.01234692
 ,-0.00161979,0.01498324,0.15693867,-0.00046645,-0.00260162,0.00045770,
 0.01916736,-0.00264974,0.02305865,0.00264705,-0.00039613,-0.00009645,-
 0.00019232,0.00071386,-0.00100970,0.00077502,-0.00012278,0.00013568,0.
 00040910,-0.00049222,-0.00119505,0.00017840,0.00016990,0.00035599,0.00
 000695,-0.00003753,0.00005330,-0.00164885,0.00041207,0.00062795,-0.000
 09230,0.00010794,-0.00031193,-0.00002025,0.00009884,0.00006493,-0.0000
 3975,-0.00003824,-0.00002392,-0.00003654,-0.00005941,0.00001935,-0.000
 00458,0.00000516,0.00002077,0.01055802,-0.05022917,0.01551385,-0.00162
 114,-0.00002134,-0.00105273,-0.01541230,0.05251342,0.00087389,-0.00026
 213,-0.00034048,0.00213619,0.00129106,0.00429871,-0.00181462,-0.000157
 31,0.00099915,0.00017609,0.00001423,-0.00019833,-0.00011412,-0.0000537
 6,-0.00003057,0.00011120,0.00017100,-0.00030806,0.00004211,-0.00002112
 ,0.00012518,0.00000576,0.00001173,0.00005661,0.00073966,-0.00050443,-0
 .00004615,0.00018985,-0.00019180,-0.00000076,-0.00000820,-0.00000751,-
 0.00000142,0.00000953,0.00002021,0.00001993,0.00000646,0.00001527,-0.0
 0001887,0.00001201,0.00001265,-0.00000485,-0.12668498,0.01484576,-0.20
 914292,-0.01718690,0.00125313,-0.02270607,0.13933892,-0.01531809,0.225
 31912,0.00069533,0.00178730,-0.00002261,0.01135769,0.01512959,-0.00036
 063,-0.00291970,0.00271513,0.00013209,0.00068181,0.00046170,-0.0000091
 8,0.00005776,0.00007020,-0.00000053,0.00033904,-0.00001640,-0.00001770
 ,0.00003350,-0.00032982,0.00000473,-0.00000493,-0.00002244,0.00000083,
 0.00006259,-0.00092037,0.00000112,0.00021088,-0.00007369,-0.00000246,-
 0.00013272,0.00016613,0.00000063,-0.00000093,0.00000444,0.00001300,-0.
 00000104,0.00000593,-0.00001310,0.00005804,0.00006130,-0.00000218,-0.1
 5945595,-0.13303670,0.00311503,-0.01118718,-0.01292962,-0.00136591,-0.
 01211667,-0.01428989,0.00213121,0.17229112,-0.00267151,0.00158356,0.00
 008890,-0.01885167,-0.02326098,0.00054904,0.00435719,-0.00328979,-0.00
 014558,-0.00166094,-0.00062446,0.00005197,0.00021837,0.00026078,-0.000
 00889,0.00021076,-0.00024543,-0.00002367,0.00115514,0.00060786,-0.0000
 3826,0.00008649,0.00001881,-0.00000347,0.00042165,0.00032332,-0.000013
 12,0.00004415,0.00006304,-0.00000158,0.00044342,-0.00028783,-0.0000159
 0,-0.00003433,0.00000049,-0.00001128,-0.00003370,0.00000046,0.00001344
 ,-0.00007049,-0.00017182,0.00000138,-0.12938008,-0.20614856,0.00369826
 ,0.00218860,0.00273674,0.00097796,0.00219540,0.00283612,-0.00111033,0.
 14130469,0.22554485,-0.00003573,-0.00005591,-0.00017615,-0.00042675,-0
 .00051822,-0.00117838,0.00013105,-0.00009707,0.00103849,-0.00001397,-0
 .00001543,0.00035102,0.00000060,-0.00000263,0.00003061,-0.00001610,0.0
 0000252,-0.00016700,0.00001025,0.00001027,0.00024576,0.00000160,0.0000
 0059,0.00003635,0.00000426,0.00002940,0.00014810,-0.00000269,0.0000020
 7,0.00012726,0.00000083,-0.00000504,-0.00013399,-0.00001374,-0.0000218
 4,-0.00000271,0.00001361,0.00002178,-0.00000252,-0.00000265,-0.0000021
 3,-0.00002091,0.00312195,0.00381341,-0.05037396,0.01705363,0.02210007,
 0.00111809,-0.01622032,-0.02124221,0.00194976,-0.00360357,-0.00402163,
 0.04704560,-0.02298334,0.00566118,0.00065750,0.00409254,0.00207152,0.0
 0023054,-0.00147931,-0.00172056,0.00012748,0.00104297,-0.00069082,0.00
 038116,-0.02138485,-0.00343974,0.00058283,-0.21437888,-0.00117096,0.00
 326887,0.00094793,-0.00148811,-0.00030181,0.00141185,0.00202814,-0.000
 35984,0.00072640,0.00018923,-0.00011081,-0.00004390,-0.00009400,-0.000
 00600,-0.00005531,0.00009103,-0.00004044,0.00002966,0.00002196,0.00002
 110,0.00003923,0.00003363,-0.00001739,-0.00000500,0.00003821,-0.000002
 92,-0.00001818,-0.00002054,-0.00004712,0.00004681,-0.00008397,-0.00003
 237,0.00003826,-0.00006879,0.00003537,-0.00001406,-0.00006664,-0.00000
 146,0.49245746,0.03109598,0.00357093,-0.00056294,0.00162799,-0.0053981
 0,0.00029848,0.00016938,-0.00121511,-0.00000663,-0.00146639,-0.0035211
 9,-0.00037583,-0.02793383,0.00313484,0.00045135,0.00472816,-0.08990327
 ,-0.00013030,0.00024898,0.00124821,-0.00023080,-0.00124468,0.00069915,
 0.00033019,-0.00111319,0.00036478,0.00006642,0.00017019,0.00010104,-0.
 00002667,-0.00092615,0.00040452,0.00002498,-0.00017223,-0.00016853,0.0
 0000733,-0.00016389,-0.00016256,-0.00000149,0.00008002,0.00000363,0.00
 000722,0.00121364,0.00041527,-0.00004609,0.00017218,-0.00023975,-0.000
 01362,0.00017709,-0.00023960,0.00000350,-0.00008686,0.00004130,-0.0000
 0482,-0.00496589,0.58554512,0.00115030,-0.00008679,0.00212673,0.000239
 88,-0.00036860,0.00492496,0.00021541,-0.00005984,-0.00096070,0.0002817
 8,0.00031676,0.00738975,0.00105869,0.00005298,0.00345521,0.00473493,-0
 .00006457,-0.06973227,-0.00014389,0.00022739,-0.00258896,-0.00025365,-
 0.00020044,-0.00433205,-0.00050389,0.00000080,-0.00050912,0.00002890,0
 .00005141,0.00001648,0.00007442,-0.00000368,0.00053411,0.00008028,0.00
 014411,0.00003306,-0.00007459,-0.00014110,0.00003095,-0.00000322,-0.00
 001585,-0.00007449,0.00006185,-0.00000184,0.00030746,-0.00002247,0.000
 09094,0.00002174,0.00003327,-0.00009803,0.00002147,-0.00000180,0.00002
 035,-0.00001370,-0.00155756,0.00003308,0.54362786,-0.00672767,-0.00186
 970,0.00046709,0.00006232,0.00172075,-0.00019727,0.00045235,-0.0002259
 9,0.00003319,-0.00020487,0.00018899,-0.00005514,0.00219513,0.00190393,
 -0.00021707,-0.01136261,0.03247962,0.00398623,0.00009364,0.00002801,0.
 00006300,0.00004290,-0.00109788,0.00017129,-0.00039868,-0.00012486,0.0
 0000380,-0.00000583,0.00003662,0.00000658,0.00005860,0.00002220,-0.000
 00882,-0.00001208,-0.00002229,0.00000190,-0.00000656,-0.00002301,-0.00
 000556,-0.00002426,-0.00006130,0.00000537,-0.00037496,-0.00019386,-0.0
 0002109,-0.00007848,0.00007705,0.00000509,-0.00008796,0.00009344,-0.00
 000088,0.00004076,-0.00000020,0.00000022,-0.08027564,0.08165428,0.0114
 5589,0.08838924,0.00025643,0.00075431,-0.00018811,-0.00029593,0.000007
 58,-0.00003487,-0.00027790,0.00016393,0.00006982,0.00029421,0.00021672
 ,0.00014731,-0.00211664,0.00055288,0.00025500,-0.00080243,0.00075630,0
 .00053410,-0.00017970,0.00025518,0.00002205,0.00021276,0.00062169,-0.0
 0013259,0.00030159,0.00005581,-0.00005531,-0.00001585,-0.00002455,0.00
 000307,0.00005166,-0.00005623,-0.00001494,0.00003404,0.00003342,0.0000
 0320,0.00003312,0.00003700,-0.00000300,-0.00000900,0.00001746,-0.00000
 358,0.00004198,0.00002945,0.00000231,0.00002158,-0.00002231,-0.0000071
 0,0.00002494,-0.00002458,0.00000536,-0.00001258,0.00001027,0.00000022,
 0.08549950,-0.28038902,-0.03097243,-0.09174749,0.30293619,0.00024406,0
 .00004200,0.00106210,-0.00024498,-0.00008524,0.00049982,-0.00004775,0.
 00020880,-0.00001728,0.00011144,-0.00004241,-0.00011507,-0.00020915,-0
 .00010397,-0.00005194,-0.00040988,-0.00009363,-0.00111555,-0.00002046,
 -0.00005766,-0.00022301,0.00017783,0.00011604,0.00022299,0.00008071,-0
 .00000487,0.00000682,-0.00000431,-0.00000916,-0.00000051,-0.00000472,-
 0.00001125,-0.00007222,-0.00002168,-0.00000070,-0.00000347,0.00002188,
 0.00000986,-0.00000295,0.00000287,0.00000882,0.00002226,-0.00000163,0.
 00000095,-0.00016155,0.00001231,-0.00003097,0.00000826,-0.00001275,0.0
 0003572,0.00000790,-0.00000032,0.00000096,-0.00000516,0.01210088,-0.03
 096025,-0.05358547,-0.01256438,0.03433600,0.05152821,0.00151809,-0.001
 55441,0.00059316,-0.00065114,-0.00060170,0.00102027,0.00104516,-0.0003
 0396,-0.00027661,-0.00103677,0.00009490,0.00147606,-0.00175171,0.00214
 312,-0.00061288,-0.01664122,-0.01291927,-0.02706179,0.00013068,0.00059
 450,-0.00058470,0.00002863,-0.00019099,-0.00063527,-0.00144574,0.00004
 107,0.00000277,0.00011440,0.00013166,-0.00001609,-0.00009980,0.0001413
 2,0.00015069,-0.00005323,-0.00002322,0.00000957,-0.00011310,-0.0001074
 0,0.00001612,0.00002634,-0.00003959,-0.00001909,0.00004673,-0.00008165
 ,0.00001370,-0.00005602,0.00004197,0.00001349,-0.00002592,0.00002950,0
 .00000897,0.00000604,0.00007355,-0.00001948,-0.08300428,-0.03436808,-0
 .08485385,0.00437297,0.00308503,0.01049064,0.09318606,0.00180693,-0.00
 024489,-0.00012735,-0.00117323,-0.00039664,0.00012070,0.00014996,0.001
 06831,0.00017966,0.00061992,-0.00048823,0.00044701,-0.00147521,-0.0001
 3781,0.00013391,-0.00106775,0.00059727,0.00152971,0.00001744,-0.000138
 60,-0.00020025,-0.00005895,0.00016066,-0.00039421,0.00005012,-0.000070
 13,-0.00013211,-0.00000690,-0.00000764,-0.00001635,-0.00003884,0.00000
 278,-0.00006066,-0.00001024,-0.00001996,0.00000632,-0.00001730,0.00000
 646,0.00000489,0.00000873,0.00000625,-0.00001749,-0.00002186,-0.000025
 97,-0.00001478,-0.00001305,0.00002874,0.00000867,-0.00001954,0.0000260
 4,-0.00000855,0.00000465,-0.00000142,0.00000183,-0.03336337,-0.0819736
 7,-0.07959375,-0.01208200,-0.00997675,-0.02721735,0.03888347,0.0837149
 2,0.00036864,-0.00058175,0.00090405,-0.00050849,-0.00004053,0.00013272
 ,0.00033708,0.00019125,0.00003913,-0.00003137,0.00009470,-0.00026398,0
 .00034986,0.00055313,-0.00020420,0.00018604,0.00183737,0.00531684,-0.0
 0015957,0.00019552,-0.00028959,0.00003391,0.00007270,0.00006332,-0.000
 26396,0.00000409,-0.00001371,0.00002852,0.00002134,-0.00002513,0.00001
 171,0.00001962,0.00002341,-0.00000317,-0.00000302,-0.00000510,-0.00001
 748,-0.00000821,0.00000388,0.00000578,0.00000150,-0.00000458,-0.000023
 92,-0.00005113,0.00000561,-0.00001672,0.00001972,0.00000644,-0.0000041
 3,0.00002091,-0.00000362,0.00000417,0.00002518,-0.00001091,-0.08259641
 ,-0.07990329,-0.23571061,-0.00016259,-0.00087264,-0.00250543,0.0911309
 4,0.08818106,0.25451785,0.00186980,-0.00152443,-0.00080272,-0.00050108
 ,-0.00051228,-0.00070623,0.00086066,-0.00025717,0.00020791,-0.00091186
 ,-0.00040181,-0.00129196,-0.00323824,0.00220493,0.00104992,-0.01447574
 ,-0.02014064,0.02405963,0.00017525,0.00073428,0.00050247,0.00007148,-0
 .00012953,0.00053332,-0.00115482,0.00007090,0.00006939,0.00010622,0.00
 010087,-0.00000050,-0.00019648,0.00015881,-0.00015574,-0.00011730,-0.0
 0011396,-0.00000824,-0.00005835,-0.00002546,-0.00000361,0.00003175,-0.
 00002485,0.00001305,0.00005664,-0.00005805,-0.00001184,-0.00001732,0.0
 0002563,-0.00000721,-0.00004195,0.00002832,-0.00000754,-0.00000139,0.0
 0007016,0.00001845,-0.07719034,-0.04889670,0.06799932,0.00385169,0.005
 60070,-0.00970060,0.00440384,0.00780701,-0.00866884,0.08647754,0.00175
 800,-0.00004505,-0.00026330,-0.00097909,-0.00017416,-0.00033590,0.0001
 9002,0.00071261,-0.00024094,0.00029198,-0.00029847,-0.00030269,-0.0010
 6658,0.00012065,0.00026931,-0.00115788,0.00068179,-0.00206918,0.000051
 17,-0.00000265,0.00037455,0.00003387,0.00029370,0.00028950,0.00001798,
 -0.00002759,0.00014684,0.00001211,-0.00000989,0.00003569,-0.00004087,0
 .00001646,0.00005471,-0.00002527,-0.00000637,-0.00000586,-0.00001944,-
 0.00002684,-0.00000055,0.00001307,0.00000919,0.00001221,-0.00003970,-0
 .00003313,0.00003951,-0.00002262,0.00003523,0.00000813,-0.00002027,0.0
 0002901,-0.00000885,0.00000732,0.00000269,0.00000477,-0.04846100,-0.13
 231799,0.11066910,-0.01075630,-0.01595474,0.02385830,0.00493020,0.0078
 7028,-0.00977751,0.05528331,0.13912525,-0.00043059,0.00054319,0.001029
 74,0.00049272,0.00009529,0.00010623,-0.00033526,-0.00033288,0.00001121
 ,-0.00029248,-0.00003968,-0.00018501,-0.00015278,-0.00048166,-0.000190
 17,-0.00051478,-0.00175124,0.00275672,0.00016264,-0.00033971,-0.000258
 97,-0.00005948,0.00001510,0.00011355,0.00037495,-0.00000034,-0.0000071
 1,-0.00003463,-0.00003302,-0.00001920,-0.00001533,-0.00001143,0.000014
 26,0.00001190,0.00000031,0.00000127,0.00000227,-0.00000255,-0.00000226
 ,-0.00000525,-0.00000273,-0.00000184,0.00001684,0.00005599,-0.00001189
 ,0.00000659,-0.00002175,-0.00000219,0.00000903,-0.00001667,0.00000426,
 -0.00000282,-0.00003374,-0.00000567,0.06766838,0.11104018,-0.19498240,
 -0.00296685,-0.00309389,0.00450124,0.00915338,0.01716908,-0.02197640,-
 0.07308846,-0.12275786,0.20910463\\0.00000171,-0.00000011,-0.00000088,
 -0.00000218,-0.00000152,-0.00000050,0.00000156,0.00000401,-0.00000144,
 0.00000288,-0.00000149,-0.00000084,-0.00000326,-0.00000113,0.00000043,
 0.00000008,-0.00000151,-0.00000009,-0.00000035,0.00000041,-0.00000098,
 0.00000059,0.00000008,-0.00000001,-0.00000129,0.00000043,0.00000306,-0
 .00000070,0.00000003,0.00000146,0.00000005,0.00000042,0.00000396,-0.00
 000075,-0.00000037,0.00000070,-0.00000006,0.00000063,0.00000094,-0.000
 00030,-0.00000017,0.00000061,0.00000196,0.00000034,0.00000169,0.000000
 12,0.00000066,0.00000029,-0.00000073,-0.00000014,-0.00000018,0.0000001
 8,-0.00000028,-0.00000068,-0.00000037,-0.00000091,0.00000015,-0.000000
 28,-0.00000035,-0.00000218,0.00000027,0.00000038,-0.00000243,0.0000008
 6,0.00000058,-0.00000308\\\@
 The archive entry for this job was punched.


 FIREWORKS ENDED
 AND SPECTATORS GONE AWAY....
 AH, HOW VAST AND DARK
                     SHIKI
 Job cpu time:       0 days  0 hours 27 minutes 42.7 seconds.
 Elapsed time:       0 days  0 hours  3 minutes 28.1 seconds.
 File lengths (MBytes):  RWF=    134 Int=      0 D2E=      0 Chk=     10 Scr=      1
 Normal termination of Gaussian 16 at Thu Sep 23 12:03:22 2021.
