 Entering Gaussian System, Link 0=/home/rong/g16/g16
 Input=/home/rong/g16/092321/tbuSiHbz.gjf
 Output=/home/rong/g16/092321/tbuSiHbz.log
 Initial command:
 /home/rong/g16/l1.exe "/tmp/Gau-98958.inp" -scrdir="/tmp/"
 Default is to use a total of   8 processors:
                                8 via shared-memory
                                1 via Linda
 Entering Link 1 = /home/rong/g16/l1.exe PID=     98960.
  
 Copyright (c) 1988-2019, Gaussian, Inc.  All Rights Reserved.
  
 This is part of the Gaussian(R) 16 program.  It is based on
 the Gaussian(R) 09 system (copyright 2009, Gaussian, Inc.),
 the Gaussian(R) 03 system (copyright 2003, Gaussian, Inc.),
 the Gaussian(R) 98 system (copyright 1998, Gaussian, Inc.),
 the Gaussian(R) 94 system (copyright 1995, Gaussian, Inc.),
 the Gaussian 92(TM) system (copyright 1992, Gaussian, Inc.),
 the Gaussian 90(TM) system (copyright 1990, Gaussian, Inc.),
 the Gaussian 88(TM) system (copyright 1988, Gaussian, Inc.),
 the Gaussian 86(TM) system (copyright 1986, Carnegie Mellon
 University), and the Gaussian 82(TM) system (copyright 1983,
 Carnegie Mellon University). Gaussian is a federally registered
 trademark of Gaussian, Inc.
  
 This software contains proprietary and confidential information,
 including trade secrets, belonging to Gaussian, Inc.
  
 This software is provided under written license and may be
 used, copied, transmitted, or stored only in accord with that
 written license.
  
 The following legend is applicable only to US Government
 contracts under FAR:
  
                    RESTRICTED RIGHTS LEGEND
  
 Use, reproduction and disclosure by the US Government is
 subject to restrictions as set forth in subparagraphs (a)
 and (c) of the Commercial Computer Software - Restricted
 Rights clause in FAR 52.227-19.
  
 Gaussian, Inc.
 340 Quinnipiac St., Bldg. 40, Wallingford CT 06492
  
  
 ---------------------------------------------------------------
 Warning -- This program may not be used in any manner that
 competes with the business of Gaussian, Inc. or will provide
 assistance to any competitor of Gaussian, Inc.  The licensee
 of this program is prohibited from giving any competitor of
 Gaussian, Inc. access to this program.  By using this program,
 the user acknowledges that Gaussian, Inc. is engaged in the
 business of creating and licensing software in the field of
 computational chemistry and represents and warrants to the
 licensee that it is not a competitor of Gaussian, Inc. and that
 it will not use this program in any manner prohibited above.
 ---------------------------------------------------------------
  

 Cite this work as:
 Gaussian 16, Revision C.01,
 M. J. Frisch, G. W. Trucks, H. B. Schlegel, G. E. Scuseria, 
 M. A. Robb, J. R. Cheeseman, G. Scalmani, V. Barone, 
 G. A. Petersson, H. Nakatsuji, X. Li, M. Caricato, A. V. Marenich, 
 J. Bloino, B. G. Janesko, R. Gomperts, B. Mennucci, H. P. Hratchian, 
 J. V. Ortiz, A. F. Izmaylov, J. L. Sonnenberg, D. Williams-Young, 
 F. Ding, F. Lipparini, F. Egidi, J. Goings, B. Peng, A. Petrone, 
 T. Henderson, D. Ranasinghe, V. G. Zakrzewski, J. Gao, N. Rega, 
 G. Zheng, W. Liang, M. Hada, M. Ehara, K. Toyota, R. Fukuda, 
 J. Hasegawa, M. Ishida, T. Nakajima, Y. Honda, O. Kitao, H. Nakai, 
 T. Vreven, K. Throssell, J. A. Montgomery, Jr., J. E. Peralta, 
 F. Ogliaro, M. J. Bearpark, J. J. Heyd, E. N. Brothers, K. N. Kudin, 
 V. N. Staroverov, T. A. Keith, R. Kobayashi, J. Normand, 
 K. Raghavachari, A. P. Rendell, J. C. Burant, S. S. Iyengar, 
 J. Tomasi, M. Cossi, J. M. Millam, M. Klene, C. Adamo, R. Cammi, 
 J. W. Ochterski, R. L. Martin, K. Morokuma, O. Farkas, 
 J. B. Foresman, and D. J. Fox, Gaussian, Inc., Wallingford CT, 2019.
 
 ******************************************
 Gaussian 16:  ES64L-G16RevC.01  3-Jul-2019
                23-Sep-2021 
 ******************************************
 %mem=15GB
 %chk=tbuSiHbz.chk
 %nprocshared=8
 Will use up to    8 processors via shared memory.
 -------------------------------------------------
 # opt freq b3lyp/6-31g scrf=(smd,solvent=toluene)
 -------------------------------------------------
 1/18=20,19=15,26=3,38=1/1,3;
 2/9=110,12=2,17=6,18=5,40=1/2;
 3/5=1,6=6,11=2,25=1,30=1,70=32201,71=1,72=13,74=-5/1,2,3;
 4//1;
 5/5=2,38=5,53=13/2;
 6/7=2,8=2,9=2,10=2,28=1/1;
 7//1,2,3,16;
 1/18=20,19=15,26=3/3(2);
 2/9=110/2;
 99//99;
 2/9=110/2;
 3/5=1,6=6,11=2,25=1,30=1,70=32205,71=1,72=13,74=-5/1,2,3;
 4/5=5,16=3,69=1/1;
 5/5=2,38=5,53=13/2;
 7//1,2,3,16;
 1/18=20,19=15,26=3/3(-5);
 2/9=110/2;
 6/7=2,8=2,9=2,10=2,19=2,28=1/1;
 99/9=1/99;
 --------
 tbuSiHbz
 --------
 Symbolic Z-matrix:
 Charge =  0 Multiplicity = 1
 C                    -0.2794    0.17648   0.00135 
 C                     1.11576   0.17648   0.00135 
 C                     1.8133    1.38423   0.00135 
 C                     1.11564   2.59274   0.00015 
 C                    -0.27918   2.59266  -0.00033 
 C                    -0.97678   1.38446   0.00067 
 H                    -0.82916  -0.77584   0.0018 
 H                    -0.82931   3.54494  -0.00128 
 H                    -2.07639   1.38464   0.00049 
 O                     3.24329   1.38433   0.00217 
 H                     3.56427   1.38322  -0.90258 
 C                     1.88615   3.92613   0.00007 
 H                     2.52686   3.96787   0.85601 
 H                     2.47528   3.99757  -0.89028 
 H                     1.19164   4.73938   0.03441 
 Si                    2.08519  -1.50393   0.00367 
 C                     3.25237  -1.57501   1.55165 
 H                     3.35769  -2.59029   1.87261 
 H                     4.21299  -1.18143   1.29241 
 H                     2.83018  -0.99252   2.34371 
 C                     3.14746  -1.6399   -1.61395 
 H                     4.10929  -1.20187  -1.4469 
 H                     3.26566  -2.67019  -1.87748 
 H                     2.65332  -1.12265  -2.40967 
 C                     0.82519  -2.9773    0.07563 
 C                    -0.02888  -2.8605    1.35176 
 H                    -1.01345  -2.53094   1.09308 
 H                    -0.08679  -3.81551   1.83083 
 H                     0.42019  -2.15389   2.01805 
 C                     1.5952   -4.31085   0.09355 
 H                     0.8999   -5.12405   0.10557 
 H                     2.20955  -4.37973  -0.7798 
 H                     2.21118  -4.35531   0.96733 
 C                    -0.09098  -2.93013  -1.16131 
 H                    -0.31108  -3.92746  -1.48037 
 H                    -1.0014   -2.42636  -0.91183 
 H                     0.403    -2.40381  -1.95117 
 

 GradGradGradGradGradGradGradGradGradGradGradGradGradGradGradGradGradGrad
 Berny optimization.
 Initialization pass.
                           ----------------------------
                           !    Initial Parameters    !
                           ! (Angstroms and Degrees)  !
 --------------------------                            --------------------------
 ! Name  Definition              Value          Derivative Info.                !
 --------------------------------------------------------------------------------
 ! R1    R(1,2)                  1.3952         estimate D2E/DX2                !
 ! R2    R(1,6)                  1.3948         estimate D2E/DX2                !
 ! R3    R(1,7)                  1.0996         estimate D2E/DX2                !
 ! R4    R(2,3)                  1.3947         estimate D2E/DX2                !
 ! R5    R(2,16)                 1.94           estimate D2E/DX2                !
 ! R6    R(3,4)                  1.3954         estimate D2E/DX2                !
 ! R7    R(3,10)                 1.43           estimate D2E/DX2                !
 ! R8    R(4,5)                  1.3948         estimate D2E/DX2                !
 ! R9    R(4,12)                 1.54           estimate D2E/DX2                !
 ! R10   R(5,6)                  1.3951         estimate D2E/DX2                !
 ! R11   R(5,8)                  1.0998         estimate D2E/DX2                !
 ! R12   R(6,9)                  1.0996         estimate D2E/DX2                !
 ! R13   R(10,11)                0.96           estimate D2E/DX2                !
 ! R14   R(12,13)                1.07           estimate D2E/DX2                !
 ! R15   R(12,14)                1.07           estimate D2E/DX2                !
 ! R16   R(12,15)                1.07           estimate D2E/DX2                !
 ! R17   R(16,17)                1.94           estimate D2E/DX2                !
 ! R18   R(16,21)                1.94           estimate D2E/DX2                !
 ! R19   R(16,25)                1.94           estimate D2E/DX2                !
 ! R20   R(17,18)                1.07           estimate D2E/DX2                !
 ! R21   R(17,19)                1.07           estimate D2E/DX2                !
 ! R22   R(17,20)                1.07           estimate D2E/DX2                !
 ! R23   R(21,22)                1.07           estimate D2E/DX2                !
 ! R24   R(21,23)                1.07           estimate D2E/DX2                !
 ! R25   R(21,24)                1.07           estimate D2E/DX2                !
 ! R26   R(25,26)                1.54           estimate D2E/DX2                !
 ! R27   R(25,30)                1.54           estimate D2E/DX2                !
 ! R28   R(25,34)                1.54           estimate D2E/DX2                !
 ! R29   R(26,27)                1.07           estimate D2E/DX2                !
 ! R30   R(26,28)                1.07           estimate D2E/DX2                !
 ! R31   R(26,29)                1.07           estimate D2E/DX2                !
 ! R32   R(30,31)                1.07           estimate D2E/DX2                !
 ! R33   R(30,32)                1.07           estimate D2E/DX2                !
 ! R34   R(30,33)                1.07           estimate D2E/DX2                !
 ! R35   R(34,35)                1.07           estimate D2E/DX2                !
 ! R36   R(34,36)                1.07           estimate D2E/DX2                !
 ! R37   R(34,37)                1.07           estimate D2E/DX2                !
 ! A1    A(2,1,6)              119.9985         estimate D2E/DX2                !
 ! A2    A(2,1,7)              119.9972         estimate D2E/DX2                !
 ! A3    A(6,1,7)              120.0043         estimate D2E/DX2                !
 ! A4    A(1,2,3)              120.0086         estimate D2E/DX2                !
 ! A5    A(1,2,16)             119.9808         estimate D2E/DX2                !
 ! A6    A(3,2,16)             120.0106         estimate D2E/DX2                !
 ! A7    A(2,3,4)              119.9942         estimate D2E/DX2                !
 ! A8    A(2,3,10)             120.0128         estimate D2E/DX2                !
 ! A9    A(4,3,10)             119.993          estimate D2E/DX2                !
 ! A10   A(3,4,5)              119.994          estimate D2E/DX2                !
 ! A11   A(3,4,12)             119.9811         estimate D2E/DX2                !
 ! A12   A(5,4,12)             120.0249         estimate D2E/DX2                !
 ! A13   A(4,5,6)              120.0047         estimate D2E/DX2                !
 ! A14   A(4,5,8)              120.0113         estimate D2E/DX2                !
 ! A15   A(6,5,8)              119.984          estimate D2E/DX2                !
 ! A16   A(1,6,5)              120.0            estimate D2E/DX2                !
 ! A17   A(1,6,9)              120.008          estimate D2E/DX2                !
 ! A18   A(5,6,9)              119.992          estimate D2E/DX2                !
 ! A19   A(3,10,11)            109.5            estimate D2E/DX2                !
 ! A20   A(4,12,13)            109.4712         estimate D2E/DX2                !
 ! A21   A(4,12,14)            109.4712         estimate D2E/DX2                !
 ! A22   A(4,12,15)            109.4712         estimate D2E/DX2                !
 ! A23   A(13,12,14)           109.4713         estimate D2E/DX2                !
 ! A24   A(13,12,15)           109.4712         estimate D2E/DX2                !
 ! A25   A(14,12,15)           109.4712         estimate D2E/DX2                !
 ! A26   A(2,16,17)            109.4712         estimate D2E/DX2                !
 ! A27   A(2,16,21)            109.4712         estimate D2E/DX2                !
 ! A28   A(2,16,25)            109.4712         estimate D2E/DX2                !
 ! A29   A(17,16,21)           109.4713         estimate D2E/DX2                !
 ! A30   A(17,16,25)           109.4712         estimate D2E/DX2                !
 ! A31   A(21,16,25)           109.4712         estimate D2E/DX2                !
 ! A32   A(16,17,18)           109.4712         estimate D2E/DX2                !
 ! A33   A(16,17,19)           109.4712         estimate D2E/DX2                !
 ! A34   A(16,17,20)           109.4712         estimate D2E/DX2                !
 ! A35   A(18,17,19)           109.4713         estimate D2E/DX2                !
 ! A36   A(18,17,20)           109.4712         estimate D2E/DX2                !
 ! A37   A(19,17,20)           109.4712         estimate D2E/DX2                !
 ! A38   A(16,21,22)           109.4712         estimate D2E/DX2                !
 ! A39   A(16,21,23)           109.4712         estimate D2E/DX2                !
 ! A40   A(16,21,24)           109.4712         estimate D2E/DX2                !
 ! A41   A(22,21,23)           109.4713         estimate D2E/DX2                !
 ! A42   A(22,21,24)           109.4712         estimate D2E/DX2                !
 ! A43   A(23,21,24)           109.4712         estimate D2E/DX2                !
 ! A44   A(16,25,26)           109.4712         estimate D2E/DX2                !
 ! A45   A(16,25,30)           109.4712         estimate D2E/DX2                !
 ! A46   A(16,25,34)           109.4712         estimate D2E/DX2                !
 ! A47   A(26,25,30)           109.4712         estimate D2E/DX2                !
 ! A48   A(26,25,34)           109.4712         estimate D2E/DX2                !
 ! A49   A(30,25,34)           109.4713         estimate D2E/DX2                !
 ! A50   A(25,26,27)           109.4712         estimate D2E/DX2                !
 ! A51   A(25,26,28)           109.4712         estimate D2E/DX2                !
 ! A52   A(25,26,29)           109.4712         estimate D2E/DX2                !
 ! A53   A(27,26,28)           109.4713         estimate D2E/DX2                !
 ! A54   A(27,26,29)           109.4712         estimate D2E/DX2                !
 ! A55   A(28,26,29)           109.4712         estimate D2E/DX2                !
 ! A56   A(25,30,31)           109.4712         estimate D2E/DX2                !
 ! A57   A(25,30,32)           109.4712         estimate D2E/DX2                !
 ! A58   A(25,30,33)           109.4712         estimate D2E/DX2                !
 ! A59   A(31,30,32)           109.4713         estimate D2E/DX2                !
 ! A60   A(31,30,33)           109.4712         estimate D2E/DX2                !
 ! A61   A(32,30,33)           109.4712         estimate D2E/DX2                !
 ! A62   A(25,34,35)           109.4712         estimate D2E/DX2                !
 ! A63   A(25,34,36)           109.4712         estimate D2E/DX2                !
 ! A64   A(25,34,37)           109.4712         estimate D2E/DX2                !
 ! A65   A(35,34,36)           109.4713         estimate D2E/DX2                !
 ! A66   A(35,34,37)           109.4712         estimate D2E/DX2                !
 ! A67   A(36,34,37)           109.4712         estimate D2E/DX2                !
 ! D1    D(6,1,2,3)              0.0323         estimate D2E/DX2                !
 ! D2    D(6,1,2,16)           179.9532         estimate D2E/DX2                !
 ! D3    D(7,1,2,3)           -179.9729         estimate D2E/DX2                !
 ! D4    D(7,1,2,16)            -0.052          estimate D2E/DX2                !
 ! D5    D(2,1,6,5)              0.0149         estimate D2E/DX2                !
 ! D6    D(2,1,6,9)            179.9892         estimate D2E/DX2                !
 ! D7    D(7,1,6,5)           -179.9798         estimate D2E/DX2                !
 ! D8    D(7,1,6,9)             -0.0056         estimate D2E/DX2                !
 ! D9    D(1,2,3,4)             -0.0568         estimate D2E/DX2                !
 ! D10   D(1,2,3,10)           179.9619         estimate D2E/DX2                !
 ! D11   D(16,2,3,4)          -179.9777         estimate D2E/DX2                !
 ! D12   D(16,2,3,10)            0.041          estimate D2E/DX2                !
 ! D13   D(1,2,16,17)         -122.191          estimate D2E/DX2                !
 ! D14   D(1,2,16,21)          117.809          estimate D2E/DX2                !
 ! D15   D(1,2,16,25)           -2.191          estimate D2E/DX2                !
 ! D16   D(3,2,16,17)           57.7299         estimate D2E/DX2                !
 ! D17   D(3,2,16,21)          -62.2701         estimate D2E/DX2                !
 ! D18   D(3,2,16,25)          177.7299         estimate D2E/DX2                !
 ! D19   D(2,3,4,5)              0.0341         estimate D2E/DX2                !
 ! D20   D(2,3,4,12)          -179.9964         estimate D2E/DX2                !
 ! D21   D(10,3,4,5)          -179.9846         estimate D2E/DX2                !
 ! D22   D(10,3,4,12)           -0.0151         estimate D2E/DX2                !
 ! D23   D(2,3,10,11)           89.947          estimate D2E/DX2                !
 ! D24   D(4,3,10,11)          -90.0343         estimate D2E/DX2                !
 ! D25   D(3,4,5,6)              0.0131         estimate D2E/DX2                !
 ! D26   D(3,4,5,8)           -179.9995         estimate D2E/DX2                !
 ! D27   D(12,4,5,6)          -179.9563         estimate D2E/DX2                !
 ! D28   D(12,4,5,8)             0.0311         estimate D2E/DX2                !
 ! D29   D(3,4,12,13)          -57.9932         estimate D2E/DX2                !
 ! D30   D(3,4,12,14)           62.0069         estimate D2E/DX2                !
 ! D31   D(3,4,12,15)         -177.9932         estimate D2E/DX2                !
 ! D32   D(5,4,12,13)          121.9763         estimate D2E/DX2                !
 ! D33   D(5,4,12,14)         -118.0237         estimate D2E/DX2                !
 ! D34   D(5,4,12,15)            1.9763         estimate D2E/DX2                !
 ! D35   D(4,5,6,1)             -0.0376         estimate D2E/DX2                !
 ! D36   D(4,5,6,9)            179.9881         estimate D2E/DX2                !
 ! D37   D(8,5,6,1)            179.975          estimate D2E/DX2                !
 ! D38   D(8,5,6,9)              0.0007         estimate D2E/DX2                !
 ! D39   D(2,16,17,18)         148.8004         estimate D2E/DX2                !
 ! D40   D(2,16,17,19)         -91.1996         estimate D2E/DX2                !
 ! D41   D(2,16,17,20)          28.8004         estimate D2E/DX2                !
 ! D42   D(21,16,17,18)        -91.1997         estimate D2E/DX2                !
 ! D43   D(21,16,17,19)         28.8004         estimate D2E/DX2                !
 ! D44   D(21,16,17,20)        148.8004         estimate D2E/DX2                !
 ! D45   D(25,16,17,18)         28.8004         estimate D2E/DX2                !
 ! D46   D(25,16,17,19)        148.8004         estimate D2E/DX2                !
 ! D47   D(25,16,17,20)        -91.1996         estimate D2E/DX2                !
 ! D48   D(2,16,21,22)          88.9473         estimate D2E/DX2                !
 ! D49   D(2,16,21,23)        -151.0526         estimate D2E/DX2                !
 ! D50   D(2,16,21,24)         -31.0527         estimate D2E/DX2                !
 ! D51   D(17,16,21,22)        -31.0526         estimate D2E/DX2                !
 ! D52   D(17,16,21,23)         88.9474         estimate D2E/DX2                !
 ! D53   D(17,16,21,24)       -151.0526         estimate D2E/DX2                !
 ! D54   D(25,16,21,22)       -151.0527         estimate D2E/DX2                !
 ! D55   D(25,16,21,23)        -31.0526         estimate D2E/DX2                !
 ! D56   D(25,16,21,24)         88.9473         estimate D2E/DX2                !
 ! D57   D(2,16,25,26)         -59.3649         estimate D2E/DX2                !
 ! D58   D(2,16,25,30)        -179.3649         estimate D2E/DX2                !
 ! D59   D(2,16,25,34)          60.6351         estimate D2E/DX2                !
 ! D60   D(17,16,25,26)         60.6351         estimate D2E/DX2                !
 ! D61   D(17,16,25,30)        -59.3649         estimate D2E/DX2                !
 ! D62   D(17,16,25,34)       -179.3649         estimate D2E/DX2                !
 ! D63   D(21,16,25,26)       -179.3649         estimate D2E/DX2                !
 ! D64   D(21,16,25,30)         60.6351         estimate D2E/DX2                !
 ! D65   D(21,16,25,34)        -59.3649         estimate D2E/DX2                !
 ! D66   D(16,25,26,27)        105.9081         estimate D2E/DX2                !
 ! D67   D(16,25,26,28)       -134.0918         estimate D2E/DX2                !
 ! D68   D(16,25,26,29)        -14.0919         estimate D2E/DX2                !
 ! D69   D(30,25,26,27)       -134.0919         estimate D2E/DX2                !
 ! D70   D(30,25,26,28)        -14.0919         estimate D2E/DX2                !
 ! D71   D(30,25,26,29)        105.9081         estimate D2E/DX2                !
 ! D72   D(34,25,26,27)        -14.0918         estimate D2E/DX2                !
 ! D73   D(34,25,26,28)        105.9082         estimate D2E/DX2                !
 ! D74   D(34,25,26,29)       -134.0918         estimate D2E/DX2                !
 ! D75   D(16,25,30,31)       -178.4279         estimate D2E/DX2                !
 ! D76   D(16,25,30,32)        -58.4279         estimate D2E/DX2                !
 ! D77   D(16,25,30,33)         61.5721         estimate D2E/DX2                !
 ! D78   D(26,25,30,31)         61.5721         estimate D2E/DX2                !
 ! D79   D(26,25,30,32)       -178.4279         estimate D2E/DX2                !
 ! D80   D(26,25,30,33)        -58.4279         estimate D2E/DX2                !
 ! D81   D(34,25,30,31)        -58.4279         estimate D2E/DX2                !
 ! D82   D(34,25,30,32)         61.5721         estimate D2E/DX2                !
 ! D83   D(34,25,30,33)       -178.4279         estimate D2E/DX2                !
 ! D84   D(16,25,34,35)        144.0208         estimate D2E/DX2                !
 ! D85   D(16,25,34,36)        -95.9792         estimate D2E/DX2                !
 ! D86   D(16,25,34,37)         24.0208         estimate D2E/DX2                !
 ! D87   D(26,25,34,35)        -95.9792         estimate D2E/DX2                !
 ! D88   D(26,25,34,36)         24.0208         estimate D2E/DX2                !
 ! D89   D(26,25,34,37)        144.0208         estimate D2E/DX2                !
 ! D90   D(30,25,34,35)         24.0208         estimate D2E/DX2                !
 ! D91   D(30,25,34,36)        144.0208         estimate D2E/DX2                !
 ! D92   D(30,25,34,37)        -95.9792         estimate D2E/DX2                !
 --------------------------------------------------------------------------------
 Trust Radius=3.00D-01 FncErr=1.00D-07 GrdErr=1.00D-06 EigMax=2.50D+02 EigMin=1.00D-04
 Number of steps in this run=    206 maximum allowed number of steps=    222.
 GradGradGradGradGradGradGradGradGradGradGradGradGradGradGradGradGradGrad

                          Input orientation:                          
 ---------------------------------------------------------------------
 Center     Atomic      Atomic             Coordinates (Angstroms)
 Number     Number       Type             X           Y           Z
 ---------------------------------------------------------------------
      1          6           0       -0.279403    0.176479    0.001347
      2          6           0        1.115757    0.176479    0.001347
      3          6           0        1.813295    1.384230    0.001347
      4          6           0        1.115641    2.592739    0.000148
      5          6           0       -0.279184    2.592661   -0.000331
      6          6           0       -0.976785    1.384455    0.000665
      7          1           0       -0.829162   -0.775838    0.001797
      8          1           0       -0.829306    3.544942   -0.001284
      9          1           0       -2.076389    1.384638    0.000485
     10          8           0        3.243295    1.384334    0.002172
     11          1           0        3.564271    1.383219   -0.902578
     12          6           0        1.886145    3.926127    0.000066
     13          1           0        2.526858    3.967874    0.856012
     14          1           0        2.475285    3.997568   -0.890277
     15          1           0        1.191642    4.739384    0.034405
     16         14           0        2.085193   -1.503934    0.003667
     17          6           0        3.252368   -1.575011    1.551650
     18          1           0        3.357685   -2.590290    1.872613
     19          1           0        4.212986   -1.181428    1.292409
     20          1           0        2.830184   -0.992518    2.343712
     21          6           0        3.147460   -1.639903   -1.613955
     22          1           0        4.109292   -1.201870   -1.446901
     23          1           0        3.265659   -2.670186   -1.877482
     24          1           0        2.653319   -1.122647   -2.409675
     25          6           0        0.825187   -2.977299    0.075626
     26          6           0       -0.028880   -2.860497    1.351764
     27          1           0       -1.013449   -2.530942    1.093082
     28          1           0       -0.086794   -3.815507    1.830828
     29          1           0        0.420193   -2.153888    2.018050
     30          6           0        1.595205   -4.310847    0.093551
     31          1           0        0.899898   -5.124053    0.105569
     32          1           0        2.209549   -4.379735   -0.779796
     33          1           0        2.211180   -4.355310    0.967335
     34          6           0       -0.090976   -2.930131   -1.161314
     35          1           0       -0.311082   -3.927455   -1.480371
     36          1           0       -1.001400   -2.426358   -0.911834
     37          1           0        0.403001   -2.403808   -1.951169
 ---------------------------------------------------------------------
                    Distance matrix (angstroms):
                    1          2          3          4          5
     1  C    0.000000
     2  C    1.395160   0.000000
     3  C    2.416205   1.394712   0.000000
     4  C    2.790065   2.416260   1.395427   0.000000
     5  C    2.416183   2.789946   2.416356   1.394825   0.000000
     6  C    1.394829   2.416183   2.790080   2.416236   1.395138
     7  H    1.099610   2.165553   3.412986   3.889675   3.413102
     8  H    3.413055   3.889707   3.413506   2.165528   1.099761
     9  H    2.165365   3.413128   3.889684   3.412999   2.165471
    10  O    3.724019   2.446494   1.430000   2.446867   3.723965
    11  H    4.128817   2.875504   1.970533   2.876394   4.129037
    12  C    4.330065   3.827971   2.542941   1.540000   2.542987
    13  H    4.793770   4.134771   2.813333   2.148263   3.240124
    14  H    4.794165   4.152593   2.839500   2.148263   3.217587
    15  H    4.794285   4.563656   3.412419   2.148263   2.602490
    16  Si   2.900881   1.940000   2.900935   4.209843   4.729946
    17  C    4.236102   3.168006   3.637510   4.933853   5.678908
    18  H    4.938123   4.022796   4.656564   5.949511   6.602857
    19  H    4.867474   3.619886   3.742721   5.050527   6.007871
    20  H    4.064820   3.129295   3.488505   4.613678   5.293035
    21  C    4.201409   3.168006   3.678938   4.964764   5.679813
    22  H    4.822646   3.599795   3.749259   5.045291   5.979110
    23  H    4.919448   4.031821   4.698686   5.987191   6.617187
    24  H    4.012682   3.140837   3.578142   4.687835   5.311123
    25  C    3.342447   3.168007   4.472674   5.578117   5.678896
    26  C    3.333109   3.515259   4.820264   5.733636   5.623856
    27  H    3.010123   3.613244   4.950853   5.655054   5.290180
    28  H    4.395458   4.552920   5.830489   6.772212   6.667442
    29  H    3.160243   3.159353   4.304196   5.204426   5.205067
    30  C    4.864027   4.513809   5.699998   6.920854   7.154060
    31  H    5.431138   5.305950   6.572892   7.720528   7.806993
    32  H    5.250158   4.750332   5.830137   7.100728   7.444170
    33  H    5.260537   4.761323   5.833846   7.100073   7.443963
    34  C    3.322396   3.529733   4.857133   5.771223   5.646640
    35  H    4.363344   4.590604   5.909524   6.836696   6.686065
    36  H    2.851305   3.477213   4.824623   5.523125   5.151989
    37  H    3.306944   3.313341   4.488929   5.411190   5.407019
                    6          7          8          9         10
     6  C    0.000000
     7  H    2.165331   0.000000
     8  H    2.165516   4.320781   0.000000
     9  H    1.099604   2.494641   2.494420   0.000000
    10  O    4.220080   4.609908   4.610240   5.319684   0.000000
    11  H    4.630015   4.978120   4.978845   5.712493   0.960000
    12  C    3.828376   5.429675   2.742076   4.707530   2.881418
    13  H    4.436348   5.873275   3.489651   5.347422   2.813717
    14  H    4.420285   5.873718   3.451884   5.323401   2.866233
    15  H    3.994842   5.873873   2.347807   4.683535   3.932770
    16  Si   4.209336   3.003930   5.829707   5.065829   3.111799
    17  C    5.389780   4.438424   6.729457   6.289777   3.340463
    18  H    6.171744   4.931722   7.660513   6.988139   4.394232
    19  H    5.931785   5.220482   7.031140   6.914477   3.031196
    20  H    5.062893   4.349980   6.283265   5.934311   3.361979
    21  C    5.363128   4.378446   6.730379   6.248429   3.430315
    22  H    5.886655   5.164161   7.000842   6.859125   3.088400
    23  H    6.161646   4.887515   7.675720   6.964613   4.469086
    24  H    5.027222   4.250077   6.302017   5.870732   3.528460
    25  C    4.719918   2.754769   6.729257   5.239398   4.987634
    26  C    4.554516   2.609342   6.595535   4.903002   5.526945
    27  H    4.065102   2.074911   6.176400   4.201830   5.885520
    28  H    5.584012   3.624370   7.621298   5.860901   6.439862
    29  H    4.305957   2.743207   6.173785   4.777516   4.955066
    30  C    6.249819   4.287455   8.221963   6.777007   5.929557
    31  H    6.774484   4.680534   8.840422   7.157681   6.918187
    32  H    6.632325   4.778360   8.522982   7.225379   5.908011
    33  H    6.636450   4.794639   8.520373   7.229457   5.911033
    34  C    4.555273   2.557094   6.619470   4.889671   5.575453
    35  H    5.554550   3.521069   7.634984   5.790301   6.560994
    36  H    3.918617   1.894361   6.042776   4.063449   5.777042
    37  H    4.479331   2.825348   6.380303   4.930381   5.121800
                   11         12         13         14         15
    11  H    0.000000
    12  C    3.177618   0.000000
    13  H    3.293829   1.070000   0.000000
    14  H    2.832113   1.070000   1.747303   0.000000
    15  H    4.215584   1.070000   1.747303   1.747303   0.000000
    16  Si   3.368175   5.433709   5.555380   5.587292   6.307012
    17  C    3.856378   5.876777   5.633281   6.133556   6.813238
    18  H    4.851097   6.937980   6.688294   7.198060   7.860972
    19  H    3.437472   5.759467   5.435879   5.882663   6.765139
    20  H    4.089183   5.529644   5.187557   5.956979   6.393154
    21  C    3.133537   5.930993   6.158981   5.723339   6.872963
    22  H    2.697410   5.773427   5.876544   5.478501   6.782732
    23  H    4.179677   6.995684   7.216762   6.786620   7.928341
    24  H    3.062766   5.646727   6.049306   5.343862   6.517164
    25  C    5.241525   6.984887   7.193061   7.232190   7.725490
    26  C    6.000160   7.180020   7.307820   7.637450   7.809181
    27  H    6.344986   7.162128   7.404363   7.663317   7.670780
    28  H    6.915818   8.196163   8.268160   8.660993   8.834461
    29  H    5.561153   6.571747   6.577564   7.107895   7.214373
    30  C    6.106709   8.242641   8.365797   8.412623   9.059418
    31  H    7.103509   9.104372   9.266786   9.310077   9.868008
    32  H    5.921316   8.348660   8.512293   8.382244   9.211807
    33  H    6.185317   8.344067   8.329912   8.561019   9.199091
    34  C    5.659750   7.229529   7.648865   7.392711   7.867421
    35  H    6.599657   8.288442   8.709123   8.421285   8.925628
    36  H    5.946286   7.037296   7.513993   7.304425   7.553321
    37  H    5.043288   6.787865   7.279380   6.811569   7.455847
                   16         17         18         19         20
    16  Si   0.000000
    17  C    1.940000   0.000000
    18  H    2.508459   1.070000   0.000000
    19  H    2.508459   1.070000   1.747303   0.000000
    20  H    2.508459   1.070000   1.747303   1.747303   0.000000
    21  C    1.940000   3.168007   3.619888   3.129296   4.022797
    22  H    2.508459   3.140837   3.675839   2.741347   4.006082
    23  H    2.508459   3.599796   3.752075   3.627952   4.563188
    24  H    2.508459   4.031822   4.581277   4.017641   4.758456
    25  C    1.940000   3.168007   3.129295   4.022797   3.619887
    26  C    2.850778   3.529733   3.437022   4.562479   3.556340
    27  H    3.441388   4.395598   4.440496   5.401531   4.324851
    28  H    3.660521   4.030851   3.656137   5.071131   4.091586
    29  H    2.693028   2.928112   2.973290   3.982148   2.694975
    30  C    2.850777   3.515258   3.038374   4.252446   4.195200
    31  H    3.810587   4.496773   3.947546   5.284830   5.079850
    32  H    2.983205   3.793361   3.399354   4.305457   4.649164
    33  H    3.012453   3.025815   2.291135   3.766487   3.685912
    34  C    2.850777   4.513809   4.605808   5.253837   4.957089
    35  H    3.717252   5.236919   5.146880   5.974627   5.753697
    36  H    3.349039   4.988796   5.175098   5.796408   5.228337
    37  H    2.731471   4.590811   4.835933   5.150825   5.131176
                   21         22         23         24         25
    21  C    0.000000
    22  H    1.070000   0.000000
    23  H    1.070000   1.747303   0.000000
    24  H    1.070000   1.747303   1.747303   0.000000
    25  C    3.168007   4.031821   3.140836   3.599795   0.000000
    26  C    4.513809   5.263842   4.617167   4.935863   1.540000
    27  H    5.043329   5.870300   5.210989   5.262869   2.148263
    28  H    5.201940   5.931419   5.128573   5.722026   2.148263
    29  H    4.570954   5.149919   4.851639   5.065082   2.148263
    30  C    3.529733   4.284783   3.060581   4.189316   1.540000
    31  H    4.488608   5.300367   3.943448   5.041051   2.148263
    32  H    3.013665   3.762030   2.289724   3.669068   2.148263
    33  H    3.861749   4.401766   3.470526   4.695721   2.148263
    34  C    3.515258   4.550900   3.442014   3.515190   1.540000
    35  H    4.148765   5.193230   3.812020   4.185479   2.148263
    36  H    4.280715   5.282503   4.381748   4.159346   2.148263
    37  H    2.868680   3.928809   2.875969   2.629741   2.148263
                   26         27         28         29         30
    26  C    0.000000
    27  H    1.070000   0.000000
    28  H    1.070000   1.747303   0.000000
    29  H    1.070000   1.747303   1.747303   0.000000
    30  C    2.514809   3.312431   2.468321   3.120388   0.000000
    31  H    2.745782   3.370505   2.379574   3.565050   1.070000
    32  H    3.444154   4.160940   3.522343   3.998016   1.070000
    33  H    2.720316   3.707069   2.513501   3.026201   1.070000
    34  C    2.514809   2.468321   3.120388   3.312431   2.514810
    35  H    3.039577   3.011018   3.320674   3.989894   2.501630
    36  H    2.501629   2.007678   3.207559   3.267933   3.362210
    37  H    3.362210   3.360053   4.066484   3.977116   3.039578
                   31         32         33         34         35
    31  H    0.000000
    32  H    1.747303   0.000000
    33  H    1.747303   1.747303   0.000000
    34  C    2.720316   2.745782   3.444155   0.000000
    35  H    2.326699   2.654985   3.540640   1.070000   0.000000
    36  H    3.453637   3.760759   4.191992   1.070000   1.747303
    37  H    3.446276   2.922331   3.949119   1.070000   1.747303
                   36         37
    36  H    0.000000
    37  H    1.747303   0.000000
 Stoichiometry    C13H22OSi
 Framework group  C1[X(C13H22OSi)]
 Deg. of freedom   105
 Full point group                 C1      NOp   1
 Largest Abelian subgroup         C1      NOp   1
 Largest concise Abelian subgroup C1      NOp   1
                         Standard orientation:                         
 ---------------------------------------------------------------------
 Center     Atomic      Atomic             Coordinates (Angstroms)
 Number     Number       Type             X           Y           Z
 ---------------------------------------------------------------------
      1          6           0       -0.673541    1.610182    0.038327
      2          6           0       -0.647715    0.215574    0.008776
      3          6           0       -1.842255   -0.503723   -0.021351
      4          6           0       -3.063394    0.171581   -0.020737
      5          6           0       -3.089142    1.565845    0.009286
      6          6           0       -1.894136    2.285235    0.038424
      7          1           0        0.268370    2.177108    0.061627
      8          1           0       -4.051382    2.098355    0.009786
      9          1           0       -1.914676    3.384396    0.061893
     10          8           0       -1.815878   -1.933141   -0.052465
     11          1           0       -1.819968   -2.273341    0.845224
     12          6           0       -4.382190   -0.622947   -0.053924
     13          1           0       -4.401522   -1.245841   -0.923711
     14          1           0       -4.453677   -1.232220    0.822761
     15          1           0       -5.207679    0.057179   -0.083880
     16         14           0        1.050257   -0.722770    0.007284
     17          6           0        1.161994   -1.855042   -1.564045
     18          1           0        2.182925   -1.934922   -1.874236
     19          1           0        0.783096   -2.828011   -1.330233
     20          1           0        0.581588   -1.426694   -2.354328
     21          6           0        1.185928   -1.816771    1.603640
     22          1           0        0.767866   -2.782637    1.410697
     23          1           0        2.214897   -1.921768    1.877680
     24          1           0        0.649849   -1.349300    2.403009
     25          6           0        2.500821    0.565159   -0.019237
     26          6           0        2.383960    1.444080   -1.278380
     27          1           0        2.033074    2.416709   -1.003111
     28          1           0        3.343564    1.529652   -1.743931
     29          1           0        1.694047    0.996559   -1.962956
     30          6           0        3.848514   -0.179840   -0.036514
     31          1           0        4.648796    0.530285   -0.023465
     32          1           0        3.917997   -0.811384    0.824430
     33          1           0        3.915133   -0.776052   -0.922513
     34          6           0        2.421466    1.453614    1.236132
     35          1           0        3.410538    1.684998    1.572431
     36          1           0        1.904038    2.359829    0.999608
     37          1           0        1.894686    0.933320    2.008593
 ---------------------------------------------------------------------
 Rotational constants (GHZ):           0.9055826           0.3632192           0.3026966
 Standard basis: 6-31G (6D, 7F)
 There are   183 symmetry adapted cartesian basis functions of A   symmetry.
 There are   183 symmetry adapted basis functions of A   symmetry.
   183 basis functions,   442 primitive gaussians,   183 cartesian basis functions
    61 alpha electrons       61 beta electrons
       nuclear repulsion energy      1166.9584659111 Hartrees.
 NAtoms=   37 NActive=   37 NUniq=   37 SFac= 1.00D+00 NAtFMM=   60 NAOKFM=F Big=F
 Integral buffers will be    131072 words long.
 Raffenetti 2 integral format.
 Two-electron integral symmetry is turned on.
 ------------------------------------------------------------------------------
 Polarizable Continuum Model (PCM)
 =================================
 Model                : PCM.
 Atomic radii         : SMD-Coulomb.
 Polarization charges : Total charges.
 Charge compensation  : None.
 Solution method      : On-the-fly selection.
 Cavity type          : VdW (van der Waals Surface) (Alpha=1.000).
 Cavity algorithm     : GePol (No added spheres)
                        Default sphere list used, NSphG=   37.
                        Lebedev-Laikov grids with approx.  5.0 points / Ang**2.
                        Smoothing algorithm: York/Karplus (Gamma=1.0000).
                        Polarization charges: spherical gaussians, with
                                              point-specific exponents (IZeta= 3).
                        Self-potential: point-specific (ISelfS= 7).
                        Self-field    : sphere-specific E.n sum rule (ISelfD= 2).
 1st derivatives      : Analytical E(r).r(x)/FMM algorithm (CHGder, D1EAlg=3).
                        Cavity 1st derivative terms included.
 Solvent              : Toluene, Eps=   2.374100 Eps(inf)=   2.238315
 ------------------------------------------------------------------------------
 ------------------------------------------------------------------------------
 Atomic radii for non-electrostatic terms: SMD-CDS.
 ------------------------------------------------------------------------------
 Nuclear repulsion after PCM non-electrostatic terms =     1166.9524224547 Hartrees.
 One-electron integrals computed using PRISM.
 NBasis=   183 RedAO= T EigKep=  5.42D-04  NBF=   183
 NBsUse=   183 1.00D-06 EigRej= -1.00D+00 NBFU=   183
 ExpMin= 7.78D-02 ExpMax= 1.61D+04 ExpMxC= 2.43D+03 IAcc=3 IRadAn=         5 AccDes= 0.00D+00
 Harris functional with IExCor=  402 and IRadAn=       5 diagonalized for initial guess.
 HarFok:  IExCor=  402 AccDes= 0.00D+00 IRadAn=         5 IDoV= 1 UseB2=F ITyADJ=14
 ICtDFT=  3500011 ScaDFX=  1.000000  1.000000  1.000000  1.000000
 FoFCou: FMM=F IPFlag=           0 FMFlag=      100000 FMFlg1=           0
         NFxFlg=           0 DoJE=T BraDBF=F KetDBF=T FulRan=T
         wScrn=  0.000000 ICntrl=       500 IOpCl=  0 I1Cent=   200000004 NGrid=           0
         NMat0=    1 NMatS0=      1 NMatT0=    0 NMatD0=    1 NMtDS0=    0 NMtDT0=    0
 Petite list used in FoFCou.
 Requested convergence on RMS density matrix=1.00D-08 within 128 cycles.
 Requested convergence on MAX density matrix=1.00D-06.
 Requested convergence on             energy=1.00D-06.
 No special actions if energy rises.
 Inv3:  Mode=1 IEnd=    18199107.
 Iteration    1 A*A^-1 deviation from unit magnitude is 4.66D-15 for   2456.
 Iteration    1 A*A^-1 deviation from orthogonality  is 3.66D-15 for   2449   1766.
 Iteration    1 A^-1*A deviation from unit magnitude is 4.77D-15 for   2452.
 Iteration    1 A^-1*A deviation from orthogonality  is 2.59D-15 for   2453   2127.
 Error on total polarization charges =  0.03222
 SCF Done:  E(RB3LYP) =  -873.195939791     A.U. after   13 cycles
            NFock= 13  Conv=0.36D-08     -V/T= 2.0039
 SMD-CDS (non-electrostatic) energy       (kcal/mol) =      -3.79
 (included in total energy above)

 **********************************************************************

            Population analysis using the SCF Density.

 **********************************************************************

 Orbital symmetries:
       Occupied  (A) (A) (A) (A) (A) (A) (A) (A) (A) (A) (A) (A)
                 (A) (A) (A) (A) (A) (A) (A) (A) (A) (A) (A) (A)
                 (A) (A) (A) (A) (A) (A) (A) (A) (A) (A) (A) (A)
                 (A) (A) (A) (A) (A) (A) (A) (A) (A) (A) (A) (A)
                 (A) (A) (A) (A) (A) (A) (A) (A) (A) (A) (A) (A)
                 (A)
       Virtual   (A) (A) (A) (A) (A) (A) (A) (A) (A) (A) (A) (A)
                 (A) (A) (A) (A) (A) (A) (A) (A) (A) (A) (A) (A)
                 (A) (A) (A) (A) (A) (A) (A) (A) (A) (A) (A) (A)
                 (A) (A) (A) (A) (A) (A) (A) (A) (A) (A) (A) (A)
                 (A) (A) (A) (A) (A) (A) (A) (A) (A) (A) (A) (A)
                 (A) (A) (A) (A) (A) (A) (A) (A) (A) (A) (A) (A)
                 (A) (A) (A) (A) (A) (A) (A) (A) (A) (A) (A) (A)
                 (A) (A) (A) (A) (A) (A) (A) (A) (A) (A) (A) (A)
                 (A) (A) (A) (A) (A) (A) (A) (A) (A) (A) (A) (A)
                 (A) (A) (A) (A) (A) (A) (A) (A) (A) (A) (A) (A)
                 (A) (A)
 The electronic state is 1-A.
 Alpha  occ. eigenvalues --  -66.11437 -19.15502 -10.23485 -10.19127 -10.18187
 Alpha  occ. eigenvalues --  -10.18048 -10.17993 -10.17134 -10.16681 -10.16361
 Alpha  occ. eigenvalues --  -10.15226 -10.14999 -10.14874 -10.14401 -10.13678
 Alpha  occ. eigenvalues --   -5.27099  -3.62937  -3.62889  -3.62863  -1.03904
 Alpha  occ. eigenvalues --   -0.85340  -0.79885  -0.76637  -0.73634  -0.69554
 Alpha  occ. eigenvalues --   -0.68768  -0.68452  -0.68034  -0.67097  -0.60223
 Alpha  occ. eigenvalues --   -0.58527  -0.54586  -0.53107  -0.48269  -0.47028
 Alpha  occ. eigenvalues --   -0.46280  -0.43956  -0.43162  -0.43079  -0.42370
 Alpha  occ. eigenvalues --   -0.40822  -0.40342  -0.40189  -0.39375  -0.39207
 Alpha  occ. eigenvalues --   -0.38731  -0.38479  -0.37903  -0.37653  -0.37256
 Alpha  occ. eigenvalues --   -0.35765  -0.34771  -0.33804  -0.31765  -0.31390
 Alpha  occ. eigenvalues --   -0.29728  -0.28572  -0.27420  -0.24976  -0.24057
 Alpha  occ. eigenvalues --   -0.23574
 Alpha virt. eigenvalues --   -0.00029   0.00904   0.06282   0.08413   0.09442
 Alpha virt. eigenvalues --    0.10651   0.11551   0.12136   0.13175   0.13557
 Alpha virt. eigenvalues --    0.14490   0.15137   0.15460   0.15702   0.16979
 Alpha virt. eigenvalues --    0.17411   0.17749   0.18034   0.18462   0.18875
 Alpha virt. eigenvalues --    0.19474   0.20341   0.21518   0.22365   0.22510
 Alpha virt. eigenvalues --    0.24221   0.24975   0.25300   0.25630   0.25929
 Alpha virt. eigenvalues --    0.27109   0.29507   0.30189   0.31682   0.32915
 Alpha virt. eigenvalues --    0.34910   0.37585   0.38012   0.39946   0.42063
 Alpha virt. eigenvalues --    0.43068   0.48054   0.50390   0.51947   0.53383
 Alpha virt. eigenvalues --    0.53691   0.55350   0.56445   0.58235   0.58689
 Alpha virt. eigenvalues --    0.59665   0.61399   0.62171   0.62967   0.63801
 Alpha virt. eigenvalues --    0.64495   0.65058   0.65430   0.65939   0.66778
 Alpha virt. eigenvalues --    0.69799   0.70847   0.71170   0.73605   0.74843
 Alpha virt. eigenvalues --    0.75313   0.77037   0.78356   0.79937   0.80512
 Alpha virt. eigenvalues --    0.81670   0.82209   0.83663   0.84506   0.84667
 Alpha virt. eigenvalues --    0.86868   0.89911   0.90082   0.90410   0.92434
 Alpha virt. eigenvalues --    0.94398   0.95022   0.97200   0.97339   0.98071
 Alpha virt. eigenvalues --    0.99030   0.99422   0.99570   1.00611   1.00625
 Alpha virt. eigenvalues --    1.01083   1.02478   1.02927   1.03725   1.03965
 Alpha virt. eigenvalues --    1.04879   1.05761   1.06771   1.09222   1.09700
 Alpha virt. eigenvalues --    1.09826   1.11008   1.11783   1.13246   1.13820
 Alpha virt. eigenvalues --    1.16277   1.19194   1.21290   1.23031   1.25901
 Alpha virt. eigenvalues --    1.27717   1.31980   1.32493   1.40484   1.42320
 Alpha virt. eigenvalues --    1.45581   1.49518   1.50934   1.63704   1.73977
 Alpha virt. eigenvalues --    1.87016   2.06646
          Condensed to atoms (all electrons):
               1          2          3          4          5          6
     1  C    4.958866   0.481474  -0.017539  -0.029648  -0.048187   0.524849
     2  C    0.481474   5.557904   0.388625  -0.128899  -0.048812  -0.060865
     3  C   -0.017539   0.388625   4.952714   0.428736  -0.026783  -0.041870
     4  C   -0.029648  -0.128899   0.428736   5.042653   0.532728  -0.053168
     5  C   -0.048187  -0.048812  -0.026783   0.532728   4.993139   0.507883
     6  C    0.524849  -0.060865  -0.041870  -0.053168   0.507883   4.960286
     7  H    0.347018  -0.036082   0.004277   0.000824   0.004357  -0.031291
     8  H    0.004249   0.000292   0.004144  -0.030855   0.350040  -0.034597
     9  H   -0.033291   0.005553   0.000849   0.004221  -0.032844   0.347044
    10  O    0.003623  -0.100636   0.280992  -0.098041   0.003052  -0.000036
    11  H   -0.000037   0.001201  -0.035182  -0.002158   0.000067   0.000013
    12  C    0.000032   0.009523  -0.056315   0.311610  -0.046231   0.007230
    13  H    0.000015   0.000066  -0.004283  -0.032664   0.000510  -0.000217
    14  H    0.000028   0.000078  -0.004289  -0.033423   0.000939  -0.000244
    15  H   -0.000007  -0.000165   0.006018  -0.035287  -0.002728   0.000250
    16  Si  -0.004518   0.251730  -0.015893   0.008241  -0.001152   0.002478
    17  C   -0.001414  -0.034259   0.000432   0.000096  -0.000008  -0.000027
    18  H    0.000010   0.001303   0.000055   0.000001   0.000000  -0.000000
    19  H   -0.000005  -0.000112   0.000242   0.000007  -0.000000   0.000001
    20  H    0.000089  -0.000577  -0.000713  -0.000025  -0.000002   0.000000
    21  C   -0.001429  -0.035154  -0.000390   0.000055  -0.000002  -0.000032
    22  H    0.000002  -0.000172   0.000079   0.000010   0.000000   0.000001
    23  H    0.000005   0.001280   0.000063   0.000001   0.000000  -0.000000
    24  H    0.000095  -0.000896  -0.000787  -0.000039  -0.000002   0.000002
    25  C    0.008694  -0.040433   0.000290  -0.000016  -0.000013   0.000365
    26  C   -0.004798   0.001744   0.000098   0.000003   0.000001  -0.000062
    27  H   -0.002801  -0.000434  -0.000005  -0.000003   0.000003   0.000058
    28  H    0.000268   0.000037   0.000000  -0.000000   0.000000   0.000003
    29  H   -0.001071   0.000139   0.000001   0.000010  -0.000000  -0.000001
    30  C   -0.000027   0.000769  -0.000014  -0.000000   0.000000  -0.000002
    31  H    0.000004  -0.000041   0.000000  -0.000000  -0.000000   0.000000
    32  H   -0.000001  -0.000005   0.000001   0.000000  -0.000000  -0.000000
    33  H   -0.000002  -0.000007   0.000002   0.000000  -0.000000  -0.000000
    34  C   -0.006797   0.002580   0.000067   0.000004  -0.000002   0.000047
    35  H    0.000321   0.000011   0.000000  -0.000000   0.000000   0.000002
    36  H   -0.004137  -0.000613  -0.000014  -0.000005   0.000002   0.000065
    37  H   -0.000921  -0.000347  -0.000040   0.000005   0.000001  -0.000016
               7          8          9         10         11         12
     1  C    0.347018   0.004249  -0.033291   0.003623  -0.000037   0.000032
     2  C   -0.036082   0.000292   0.005553  -0.100636   0.001201   0.009523
     3  C    0.004277   0.004144   0.000849   0.280992  -0.035182  -0.056315
     4  C    0.000824  -0.030855   0.004221  -0.098041  -0.002158   0.311610
     5  C    0.004357   0.350040  -0.032844   0.003052   0.000067  -0.046231
     6  C   -0.031291  -0.034597   0.347044  -0.000036   0.000013   0.007230
     7  H    0.581953  -0.000185  -0.003765  -0.000048   0.000002   0.000005
     8  H   -0.000185   0.572954  -0.003736  -0.000053   0.000003  -0.008550
     9  H   -0.003765  -0.003736   0.583017   0.000002  -0.000000  -0.000161
    10  O   -0.000048  -0.000053   0.000002   8.254218   0.243832   0.002121
    11  H    0.000002   0.000003  -0.000000   0.243832   0.410405  -0.000126
    12  C    0.000005  -0.008550  -0.000161   0.002121  -0.000126   5.130009
    13  H    0.000000   0.000195   0.000002   0.002497  -0.000497   0.376540
    14  H   -0.000000   0.000214   0.000002   0.002318   0.001586   0.369813
    15  H   -0.000000   0.005322  -0.000007   0.000422  -0.000023   0.363147
    16  Si  -0.008473   0.000026  -0.000086   0.038268  -0.006276  -0.000243
    17  C    0.000008  -0.000000   0.000000  -0.002380  -0.000133   0.000003
    18  H    0.000001   0.000000  -0.000000   0.000088   0.000001  -0.000000
    19  H   -0.000000   0.000000  -0.000000   0.000456  -0.000027  -0.000000
    20  H   -0.000016  -0.000000   0.000000  -0.000751   0.000041   0.000000
    21  C   -0.000001  -0.000000   0.000000  -0.001802   0.002033   0.000001
    22  H    0.000000   0.000000  -0.000000   0.000438   0.000915  -0.000000
    23  H    0.000001   0.000000  -0.000000   0.000064  -0.000020  -0.000000
    24  H   -0.000017  -0.000000   0.000000  -0.000433   0.000277   0.000001
    25  C    0.000398  -0.000000   0.000007   0.000064  -0.000010   0.000000
    26  C    0.000974   0.000000  -0.000006  -0.000000  -0.000000  -0.000000
    27  H    0.005278   0.000000   0.000003   0.000000  -0.000000   0.000000
    28  H    0.000019  -0.000000  -0.000000   0.000000  -0.000000   0.000000
    29  H   -0.000666   0.000000  -0.000001   0.000004   0.000000  -0.000000
    30  C    0.000140   0.000000  -0.000000   0.000000   0.000000  -0.000000
    31  H   -0.000000  -0.000000   0.000000   0.000000  -0.000000   0.000000
    32  H   -0.000004  -0.000000  -0.000000   0.000000  -0.000000  -0.000000
    33  H   -0.000001  -0.000000  -0.000000   0.000000  -0.000000  -0.000000
    34  C   -0.000322   0.000000  -0.000002  -0.000000  -0.000000  -0.000000
    35  H   -0.000018  -0.000000  -0.000000  -0.000000  -0.000000   0.000000
    36  H    0.007547   0.000000   0.000009   0.000000   0.000000   0.000000
    37  H   -0.000586   0.000000  -0.000001  -0.000001  -0.000001  -0.000000
              13         14         15         16         17         18
     1  C    0.000015   0.000028  -0.000007  -0.004518  -0.001414   0.000010
     2  C    0.000066   0.000078  -0.000165   0.251730  -0.034259   0.001303
     3  C   -0.004283  -0.004289   0.006018  -0.015893   0.000432   0.000055
     4  C   -0.032664  -0.033423  -0.035287   0.008241   0.000096   0.000001
     5  C    0.000510   0.000939  -0.002728  -0.001152  -0.000008   0.000000
     6  C   -0.000217  -0.000244   0.000250   0.002478  -0.000027  -0.000000
     7  H    0.000000  -0.000000  -0.000000  -0.008473   0.000008   0.000001
     8  H    0.000195   0.000214   0.005322   0.000026  -0.000000   0.000000
     9  H    0.000002   0.000002  -0.000007  -0.000086   0.000000  -0.000000
    10  O    0.002497   0.002318   0.000422   0.038268  -0.002380   0.000088
    11  H   -0.000497   0.001586  -0.000023  -0.006276  -0.000133   0.000001
    12  C    0.376540   0.369813   0.363147  -0.000243   0.000003  -0.000000
    13  H    0.547377  -0.030473  -0.028984   0.000071  -0.000001  -0.000000
    14  H   -0.030473   0.576366  -0.030429  -0.000034   0.000000  -0.000000
    15  H   -0.028984  -0.030429   0.578833  -0.000001  -0.000000   0.000000
    16  Si   0.000071  -0.000034  -0.000001  11.885029   0.329723  -0.021023
    17  C   -0.000001   0.000000  -0.000000   0.329723   5.415021   0.355591
    18  H   -0.000000  -0.000000   0.000000  -0.021023   0.355591   0.564679
    19  H   -0.000000   0.000000   0.000000  -0.011019   0.366766  -0.025969
    20  H   -0.000001   0.000000  -0.000000  -0.015722   0.367262  -0.025273
    21  C    0.000000  -0.000001  -0.000000   0.316291  -0.035727   0.000276
    22  H    0.000000  -0.000000   0.000000  -0.011433  -0.002579  -0.000047
    23  H   -0.000000  -0.000000   0.000000  -0.019580   0.000275   0.000041
    24  H    0.000000   0.000000   0.000000  -0.016580   0.001241  -0.000015
    25  C   -0.000000  -0.000000  -0.000000   0.314047  -0.035610  -0.001930
    26  C    0.000000  -0.000000   0.000000  -0.020861  -0.002176  -0.000451
    27  H    0.000000  -0.000000  -0.000000  -0.001096   0.000073  -0.000007
    28  H    0.000000  -0.000000  -0.000000   0.000644  -0.000125   0.000055
    29  H   -0.000000  -0.000000  -0.000000   0.001894   0.001461   0.000294
    30  C    0.000000  -0.000000   0.000000  -0.018994  -0.002559  -0.000444
    31  H   -0.000000  -0.000000  -0.000000   0.002137   0.000071  -0.000099
    32  H    0.000000  -0.000000   0.000000  -0.001874  -0.000338  -0.000164
    33  H   -0.000000   0.000000  -0.000000  -0.001737   0.000876   0.004784
    34  C   -0.000000   0.000000   0.000000  -0.020950   0.001108   0.000120
    35  H   -0.000000   0.000000  -0.000000   0.001291  -0.000043  -0.000004
    36  H   -0.000000   0.000000  -0.000000  -0.000757  -0.000024  -0.000002
    37  H    0.000000  -0.000000   0.000000  -0.000760   0.000007   0.000001
              19         20         21         22         23         24
     1  C   -0.000005   0.000089  -0.001429   0.000002   0.000005   0.000095
     2  C   -0.000112  -0.000577  -0.035154  -0.000172   0.001280  -0.000896
     3  C    0.000242  -0.000713  -0.000390   0.000079   0.000063  -0.000787
     4  C    0.000007  -0.000025   0.000055   0.000010   0.000001  -0.000039
     5  C   -0.000000  -0.000002  -0.000002   0.000000   0.000000  -0.000002
     6  C    0.000001   0.000000  -0.000032   0.000001  -0.000000   0.000002
     7  H   -0.000000  -0.000016  -0.000001   0.000000   0.000001  -0.000017
     8  H    0.000000  -0.000000  -0.000000   0.000000   0.000000  -0.000000
     9  H   -0.000000   0.000000   0.000000  -0.000000  -0.000000   0.000000
    10  O    0.000456  -0.000751  -0.001802   0.000438   0.000064  -0.000433
    11  H   -0.000027   0.000041   0.002033   0.000915  -0.000020   0.000277
    12  C   -0.000000   0.000000   0.000001  -0.000000  -0.000000   0.000001
    13  H   -0.000000  -0.000001   0.000000   0.000000  -0.000000   0.000000
    14  H    0.000000   0.000000  -0.000001  -0.000000  -0.000000   0.000000
    15  H    0.000000  -0.000000  -0.000000   0.000000   0.000000   0.000000
    16  Si  -0.011019  -0.015722   0.316291  -0.011433  -0.019580  -0.016580
    17  C    0.366766   0.367262  -0.035727  -0.002579   0.000275   0.001241
    18  H   -0.025969  -0.025273   0.000276  -0.000047   0.000041  -0.000015
    19  H    0.530045  -0.023163  -0.002724   0.000571  -0.000065   0.000051
    20  H   -0.023163   0.537459   0.001171   0.000049  -0.000011  -0.000022
    21  C   -0.002724   0.001171   5.449257   0.362301   0.361619   0.363247
    22  H    0.000571   0.000049   0.362301   0.542841  -0.023777  -0.026776
    23  H   -0.000065  -0.000011   0.361619  -0.023777   0.541685  -0.023614
    24  H    0.000051  -0.000022   0.363247  -0.026776  -0.023614   0.550300
    25  C    0.001000  -0.000373  -0.035168   0.001059  -0.002266  -0.000488
    26  C    0.000058  -0.000218   0.001149  -0.000015   0.000111   0.000000
    27  H   -0.000001   0.000010  -0.000034   0.000000  -0.000002   0.000000
    28  H    0.000003   0.000006  -0.000040   0.000000  -0.000004  -0.000000
    29  H    0.000028   0.000044   0.000012   0.000000   0.000003  -0.000000
    30  C    0.000035   0.000132  -0.003012   0.000027  -0.000191   0.000134
    31  H    0.000000  -0.000003   0.000059   0.000001  -0.000113  -0.000003
    32  H   -0.000012   0.000005   0.001217  -0.000055   0.004899  -0.000016
    33  H   -0.000043  -0.000007  -0.000251  -0.000009  -0.000124   0.000003
    34  C   -0.000014  -0.000002  -0.002924   0.000082  -0.000400  -0.000371
    35  H    0.000000  -0.000000  -0.000093   0.000002   0.000005  -0.000001
    36  H    0.000000   0.000001   0.000086  -0.000002  -0.000007   0.000017
    37  H   -0.000000   0.000000   0.002544   0.000025   0.000400   0.000300
              25         26         27         28         29         30
     1  C    0.008694  -0.004798  -0.002801   0.000268  -0.001071  -0.000027
     2  C   -0.040433   0.001744  -0.000434   0.000037   0.000139   0.000769
     3  C    0.000290   0.000098  -0.000005   0.000000   0.000001  -0.000014
     4  C   -0.000016   0.000003  -0.000003  -0.000000   0.000010  -0.000000
     5  C   -0.000013   0.000001   0.000003   0.000000  -0.000000   0.000000
     6  C    0.000365  -0.000062   0.000058   0.000003  -0.000001  -0.000002
     7  H    0.000398   0.000974   0.005278   0.000019  -0.000666   0.000140
     8  H   -0.000000   0.000000   0.000000  -0.000000   0.000000   0.000000
     9  H    0.000007  -0.000006   0.000003  -0.000000  -0.000001  -0.000000
    10  O    0.000064  -0.000000   0.000000   0.000000   0.000004   0.000000
    11  H   -0.000010  -0.000000  -0.000000  -0.000000   0.000000   0.000000
    12  C    0.000000  -0.000000   0.000000   0.000000  -0.000000  -0.000000
    13  H   -0.000000   0.000000   0.000000   0.000000  -0.000000   0.000000
    14  H   -0.000000  -0.000000  -0.000000  -0.000000  -0.000000  -0.000000
    15  H   -0.000000   0.000000  -0.000000  -0.000000  -0.000000   0.000000
    16  Si   0.314047  -0.020861  -0.001096   0.000644   0.001894  -0.018994
    17  C   -0.035610  -0.002176   0.000073  -0.000125   0.001461  -0.002559
    18  H   -0.001930  -0.000451  -0.000007   0.000055   0.000294  -0.000444
    19  H    0.001000   0.000058  -0.000001   0.000003   0.000028   0.000035
    20  H   -0.000373  -0.000218   0.000010   0.000006   0.000044   0.000132
    21  C   -0.035168   0.001149  -0.000034  -0.000040   0.000012  -0.003012
    22  H    0.001059  -0.000015   0.000000   0.000000   0.000000   0.000027
    23  H   -0.002266   0.000111  -0.000002  -0.000004   0.000003  -0.000191
    24  H   -0.000488   0.000000   0.000000  -0.000000  -0.000000   0.000134
    25  C    5.503943   0.294091  -0.042131  -0.045064  -0.046922   0.338671
    26  C    0.294091   5.158690   0.377936   0.372261   0.370041  -0.054619
    27  H   -0.042131   0.377936   0.586297  -0.027391  -0.029703   0.004286
    28  H   -0.045064   0.372261  -0.027391   0.590036  -0.027302  -0.009244
    29  H   -0.046922   0.370041  -0.029703  -0.027302   0.562588   0.002521
    30  C    0.338671  -0.054619   0.004286  -0.009244   0.002521   5.096675
    31  H   -0.041543  -0.007096   0.000559   0.005891  -0.000263   0.371075
    32  H   -0.044047   0.006881  -0.000280   0.000332  -0.000265   0.372252
    33  H   -0.041825  -0.004574  -0.000017   0.000723   0.001104   0.373315
    34  C    0.303642  -0.064530  -0.012166   0.002585   0.006172  -0.055740
    35  H   -0.045117   0.001380   0.000774   0.000675  -0.000279  -0.009712
    36  H   -0.041492  -0.013285   0.003001   0.000334   0.000607   0.004906
    37  H   -0.046586   0.006859   0.000531  -0.000274  -0.000339   0.001437
              31         32         33         34         35         36
     1  C    0.000004  -0.000001  -0.000002  -0.006797   0.000321  -0.004137
     2  C   -0.000041  -0.000005  -0.000007   0.002580   0.000011  -0.000613
     3  C    0.000000   0.000001   0.000002   0.000067   0.000000  -0.000014
     4  C   -0.000000   0.000000   0.000000   0.000004  -0.000000  -0.000005
     5  C   -0.000000  -0.000000  -0.000000  -0.000002   0.000000   0.000002
     6  C    0.000000  -0.000000  -0.000000   0.000047   0.000002   0.000065
     7  H   -0.000000  -0.000004  -0.000001  -0.000322  -0.000018   0.007547
     8  H   -0.000000  -0.000000  -0.000000   0.000000  -0.000000   0.000000
     9  H    0.000000  -0.000000  -0.000000  -0.000002  -0.000000   0.000009
    10  O    0.000000   0.000000   0.000000  -0.000000  -0.000000   0.000000
    11  H   -0.000000  -0.000000  -0.000000  -0.000000  -0.000000   0.000000
    12  C    0.000000  -0.000000  -0.000000  -0.000000   0.000000   0.000000
    13  H   -0.000000   0.000000  -0.000000  -0.000000  -0.000000  -0.000000
    14  H   -0.000000  -0.000000   0.000000   0.000000   0.000000   0.000000
    15  H   -0.000000   0.000000  -0.000000   0.000000  -0.000000  -0.000000
    16  Si   0.002137  -0.001874  -0.001737  -0.020950   0.001291  -0.000757
    17  C    0.000071  -0.000338   0.000876   0.001108  -0.000043  -0.000024
    18  H   -0.000099  -0.000164   0.004784   0.000120  -0.000004  -0.000002
    19  H    0.000000  -0.000012  -0.000043  -0.000014   0.000000   0.000000
    20  H   -0.000003   0.000005  -0.000007  -0.000002  -0.000000   0.000001
    21  C    0.000059   0.001217  -0.000251  -0.002924  -0.000093   0.000086
    22  H    0.000001  -0.000055  -0.000009   0.000082   0.000002  -0.000002
    23  H   -0.000113   0.004899  -0.000124  -0.000400   0.000005  -0.000007
    24  H   -0.000003  -0.000016   0.000003  -0.000371  -0.000001   0.000017
    25  C   -0.041543  -0.044047  -0.041825   0.303642  -0.045117  -0.041492
    26  C   -0.007096   0.006881  -0.004574  -0.064530   0.001380  -0.013285
    27  H    0.000559  -0.000280  -0.000017  -0.012166   0.000774   0.003001
    28  H    0.005891   0.000332   0.000723   0.002585   0.000675   0.000334
    29  H   -0.000263  -0.000265   0.001104   0.006172  -0.000279   0.000607
    30  C    0.371075   0.372252   0.373315  -0.055740  -0.009712   0.004906
    31  H    0.601733  -0.032141  -0.031862  -0.008374   0.007903   0.000374
    32  H   -0.032141   0.591564  -0.034045  -0.003249   0.000010  -0.000023
    33  H   -0.031862  -0.034045   0.586213   0.006626   0.000271  -0.000279
    34  C   -0.008374  -0.003249   0.006626   5.150678   0.369476   0.377142
    35  H    0.007903   0.000010   0.000271   0.369476   0.597412  -0.027657
    36  H    0.000374  -0.000023  -0.000279   0.377142  -0.027657   0.586246
    37  H   -0.000310   0.001506  -0.000241   0.369601  -0.028899  -0.030791
              37
     1  C   -0.000921
     2  C   -0.000347
     3  C   -0.000040
     4  C    0.000005
     5  C    0.000001
     6  C   -0.000016
     7  H   -0.000586
     8  H    0.000000
     9  H   -0.000001
    10  O   -0.000001
    11  H   -0.000001
    12  C   -0.000000
    13  H    0.000000
    14  H   -0.000000
    15  H    0.000000
    16  Si  -0.000760
    17  C    0.000007
    18  H    0.000001
    19  H   -0.000000
    20  H    0.000000
    21  C    0.002544
    22  H    0.000025
    23  H    0.000400
    24  H    0.000300
    25  C   -0.046586
    26  C    0.006859
    27  H    0.000531
    28  H   -0.000274
    29  H   -0.000339
    30  C    0.001437
    31  H   -0.000310
    32  H    0.001506
    33  H   -0.000241
    34  C    0.369601
    35  H   -0.028899
    36  H   -0.030791
    37  H    0.575586
 Mulliken charges:
               1
     1  C   -0.173011
     2  C   -0.215801
     3  C    0.136432
     4  C    0.115025
     5  C   -0.185957
     6  C   -0.128149
     7  H    0.128675
     8  H    0.140537
     9  H    0.133190
    10  O   -0.628279
    11  H    0.384117
    12  C   -0.458409
    13  H    0.169848
    14  H    0.147549
    15  H    0.143639
    16  Si   1.047192
    17  C   -0.722612
    18  H    0.148127
    19  H    0.163891
    20  H    0.160611
    21  C   -0.742532
    22  H    0.156462
    23  H    0.159722
    24  H    0.154392
    25  C   -0.255239
    26  C   -0.419585
    27  H    0.137259
    28  H    0.135573
    29  H    0.159888
    30  C   -0.411817
    31  H    0.132041
    32  H    0.137852
    33  H    0.141104
    34  C   -0.414087
    35  H    0.132290
    36  H    0.138753
    37  H    0.151309
 Sum of Mulliken charges =  -0.00000
 Mulliken charges with hydrogens summed into heavy atoms:
               1
     1  C   -0.044336
     2  C   -0.215801
     3  C    0.136432
     4  C    0.115025
     5  C   -0.045420
     6  C    0.005041
    10  O   -0.244163
    12  C    0.002627
    16  Si   1.047192
    17  C   -0.249983
    21  C   -0.271956
    25  C   -0.255239
    26  C    0.013135
    30  C   -0.000820
    34  C    0.008265
 Electronic spatial extent (au):  <R**2>=           3997.1777
 Charge=              0.0000 electrons
 Dipole moment (field-independent basis, Debye):
    X=             -0.2717    Y=              0.4735    Z=              1.6678  Tot=              1.7549
 Quadrupole moment (field-independent basis, Debye-Ang):
   XX=            -94.2176   YY=            -98.3037   ZZ=           -102.5188
   XY=             -0.3957   XZ=             -3.1416   YZ=             -4.3222
 Traceless Quadrupole moment (field-independent basis, Debye-Ang):
   XX=              4.1291   YY=              0.0430   ZZ=             -4.1721
   XY=             -0.3957   XZ=             -3.1416   YZ=             -4.3222
 Octapole moment (field-independent basis, Debye-Ang**2):
  XXX=            -35.2232  YYY=              0.7623  ZZZ=              0.7262  XYY=             -8.9547
  XXY=              2.4354  XXZ=              4.7306  XZZ=             -2.4291  YZZ=             -9.4285
  YYZ=             10.8741  XYZ=              7.8413
 Hexadecapole moment (field-independent basis, Debye-Ang**3):
 XXXX=          -3502.2145 YYYY=          -1235.1067 ZZZZ=           -560.9978 XXXY=             -3.0105
 XXXZ=             -7.2686 YYYX=              3.2744 YYYZ=            -24.5006 ZZZX=             -3.3240
 ZZZY=             -3.9213 XXYY=           -802.8218 XXZZ=           -706.1705 YYZZ=           -322.0118
 XXYZ=            -15.4942 YYXZ=            -19.5709 ZZXY=             22.0497
 N-N= 1.166952422455D+03 E-N=-4.379190200323D+03  KE= 8.697979510734D+02
 D1PCM: PCM CHGder 1st derivatives, ID1Alg=3 FixD1E=F DoIter=F DoCFld=F I1PDM=0.
 Calling FoFJK, ICntrl=      2127 FMM=F ISym2X=0 I1Cent= 0 IOpClX= 0 NMat=1 NMatS=1 NMatT=0.
 ***** Axes restored to original set *****
 -------------------------------------------------------------------
 Center     Atomic                   Forces (Hartrees/Bohr)
 Number     Number              X              Y              Z
 -------------------------------------------------------------------
      1        6          -0.011682645   -0.003104974    0.000834982
      2        6           0.015623339   -0.023997341    0.000816254
      3        6          -0.005976874   -0.001459189   -0.003874088
      4        6           0.016714892    0.030090394    0.001724796
      5        6          -0.009823175    0.002530721    0.000726248
      6        6          -0.017005838    0.000821320   -0.000291658
      7        1           0.005450685    0.015170991    0.000489506
      8        1           0.005797397   -0.007532528    0.000005665
      9        1           0.008621581    0.000252352   -0.000007250
     10        8          -0.015069854    0.000313240    0.017854184
     11        1           0.009372893    0.000204726   -0.017748322
     12        6          -0.019006796   -0.030281214    0.000822873
     13        1           0.012644161    0.003081062    0.012006091
     14        1           0.012312545    0.004778738   -0.013434482
     15        1          -0.008904590    0.013997931   -0.000000346
     16       14           0.010990376    0.006059085    0.002131877
     17        6          -0.016436121    0.000022416   -0.020732833
     18        1           0.003569692   -0.016291766    0.007276183
     19        1           0.014777330    0.006914182   -0.002208355
     20        1          -0.004554136    0.008975616    0.014042165
     21        6          -0.015435159    0.003277242    0.021191849
     22        1           0.016238746    0.006329907    0.001080603
     23        1           0.004018531   -0.016039317   -0.006419850
     24        1          -0.006338257    0.007240630   -0.015429659
     25        6          -0.001033816    0.002958341   -0.001256393
     26        6           0.012644962   -0.001453992   -0.009546069
     27        1          -0.016379382    0.004495366    0.003821626
     28        1          -0.004810140   -0.014539623    0.012252481
     29        1           0.001051039    0.008917936    0.018932330
     30        6          -0.003791443    0.023270285   -0.000993437
     31        1          -0.010871341   -0.016163301    0.000350335
     32        1           0.011974631   -0.007064361   -0.013820147
     33        1           0.012019187   -0.005987524    0.013530561
     34        6           0.013994975   -0.000936263    0.009462721
     35        1          -0.007707719   -0.016126781   -0.009039451
     36        1          -0.014894690    0.005725055   -0.004406442
     37        1           0.001905012    0.005550638   -0.020144546
 -------------------------------------------------------------------
 Cartesian Forces:  Max     0.030281214 RMS     0.011265026

 GradGradGradGradGradGradGradGradGradGradGradGradGradGradGradGradGradGrad
 Berny optimization.
 FormGI is forming the generalized inverse of G from B-inverse, IUseBI=4.
 Internal  Forces:  Max     0.025066208 RMS     0.007711642
 Search for a local minimum.
 Step number   1 out of a maximum of  206
 All quantities printed in internal units (Hartrees-Bohrs-Radians)
 Mixed Optimization -- RFO/linear search
 Second derivative matrix not updated -- first step.
 ITU=  0
     Eigenvalues ---    0.00237   0.00237   0.00237   0.00237   0.00239
     Eigenvalues ---    0.00239   0.00239   0.00239   0.01295   0.01360
     Eigenvalues ---    0.01417   0.01999   0.02152   0.02154   0.02155
     Eigenvalues ---    0.02155   0.02156   0.02157   0.04739   0.04740
     Eigenvalues ---    0.04740   0.04741   0.05243   0.05243   0.05720
     Eigenvalues ---    0.05720   0.05720   0.05720   0.05720   0.05720
     Eigenvalues ---    0.05721   0.05721   0.05721   0.05721   0.07243
     Eigenvalues ---    0.07243   0.14387   0.14387   0.15006   0.15006
     Eigenvalues ---    0.16000   0.16000   0.16000   0.16000   0.16000
     Eigenvalues ---    0.16000   0.16000   0.16000   0.16000   0.16000
     Eigenvalues ---    0.16000   0.16000   0.16000   0.16000   0.16000
     Eigenvalues ---    0.16000   0.16000   0.16000   0.16000   0.16000
     Eigenvalues ---    0.16000   0.16000   0.17593   0.17593   0.17593
     Eigenvalues ---    0.17593   0.22085   0.23479   0.24913   0.25000
     Eigenvalues ---    0.25000   0.25000   0.28519   0.28519   0.28519
     Eigenvalues ---    0.28519   0.33709   0.33725   0.33726   0.37230
     Eigenvalues ---    0.37230   0.37230   0.37230   0.37230   0.37230
     Eigenvalues ---    0.37230   0.37230   0.37230   0.37230   0.37230
     Eigenvalues ---    0.37230   0.37230   0.37230   0.37230   0.37230
     Eigenvalues ---    0.37230   0.37230   0.40989   0.42379   0.42406
     Eigenvalues ---    0.46412   0.46453   0.46466   0.46497   0.55473
 RFO step:  Lambda=-3.87215036D-02 EMin= 2.36824164D-03
 Linear search not attempted -- first point.
 Maximum step size (   0.300) exceeded in Quadratic search.
    -- Step size scaled by   0.872
 Iteration  1 RMS(Cart)=  0.13652598 RMS(Int)=  0.00313798
 Iteration  2 RMS(Cart)=  0.00726158 RMS(Int)=  0.00029726
 Iteration  3 RMS(Cart)=  0.00002687 RMS(Int)=  0.00029706
 Iteration  4 RMS(Cart)=  0.00000001 RMS(Int)=  0.00029706
 Variable       Old X    -DE/DX   Delta X   Delta X   Delta X     New X
                                 (Linear)    (Quad)   (Total)
    R1        2.63647   0.01237   0.00000   0.02176   0.02179   2.65826
    R2        2.63584   0.00661   0.00000   0.01125   0.01119   2.64704
    R3        2.07796  -0.01586   0.00000  -0.03680  -0.03680   2.04116
    R4        2.63562   0.00891   0.00000   0.01593   0.01602   2.65165
    R5        3.66607   0.00468   0.00000   0.01902   0.01902   3.68509
    R6        2.63697   0.00807   0.00000   0.01421   0.01427   2.65125
    R7        2.70231  -0.00570   0.00000  -0.01108  -0.01108   2.69123
    R8        2.63584   0.00627   0.00000   0.01055   0.01052   2.64636
    R9        2.91018  -0.00877   0.00000  -0.02362  -0.02362   2.88656
   R10        2.63643   0.00374   0.00000   0.00597   0.00587   2.64230
   R11        2.07825  -0.00942   0.00000  -0.02187  -0.02187   2.05638
   R12        2.07795  -0.00862   0.00000  -0.02000  -0.02000   2.05795
   R13        1.81414   0.01986   0.00000   0.02919   0.02919   1.84333
   R14        2.02201   0.01729   0.00000   0.03669   0.03669   2.05870
   R15        2.02201   0.01828   0.00000   0.03879   0.03879   2.06080
   R16        2.02201   0.01642   0.00000   0.03484   0.03484   2.05685
   R17        3.66607  -0.00287   0.00000  -0.01167  -0.01167   3.65440
   R18        3.66607  -0.00124   0.00000  -0.00503  -0.00503   3.66104
   R19        3.66607   0.01242   0.00000   0.05047   0.05047   3.71654
   R20        2.02201   0.01799   0.00000   0.03818   0.03818   2.06018
   R21        2.02201   0.01635   0.00000   0.03469   0.03469   2.05670
   R22        2.02201   0.01708   0.00000   0.03623   0.03623   2.05824
   R23        2.02201   0.01735   0.00000   0.03682   0.03682   2.05883
   R24        2.02201   0.01747   0.00000   0.03707   0.03707   2.05908
   R25        2.02201   0.01790   0.00000   0.03799   0.03799   2.06000
   R26        2.91018   0.02507   0.00000   0.06749   0.06749   2.97767
   R27        2.91018   0.00980   0.00000   0.02640   0.02640   2.93657
   R28        2.91018   0.02318   0.00000   0.06242   0.06242   2.97259
   R29        2.02201   0.01553   0.00000   0.03295   0.03295   2.05496
   R30        2.02201   0.01872   0.00000   0.03973   0.03973   2.06174
   R31        2.02201   0.01812   0.00000   0.03846   0.03846   2.06046
   R32        2.02201   0.01935   0.00000   0.04106   0.04106   2.06307
   R33        2.02201   0.01861   0.00000   0.03948   0.03948   2.06149
   R34        2.02201   0.01822   0.00000   0.03866   0.03866   2.06067
   R35        2.02201   0.01931   0.00000   0.04098   0.04098   2.06299
   R36        2.02201   0.01434   0.00000   0.03043   0.03043   2.05244
   R37        2.02201   0.01848   0.00000   0.03920   0.03920   2.06121
    A1        2.09437   0.00477   0.00000   0.01580   0.01578   2.11015
    A2        2.09435   0.00059   0.00000   0.00516   0.00516   2.09951
    A3        2.09447  -0.00536   0.00000  -0.02096  -0.02096   2.07352
    A4        2.09455  -0.01447   0.00000  -0.04271  -0.04257   2.05198
    A5        2.09406   0.02394   0.00000   0.07182   0.07174   2.16580
    A6        2.09458  -0.00947   0.00000  -0.02911  -0.02919   2.06539
    A7        2.09429   0.01472   0.00000   0.04529   0.04537   2.13966
    A8        2.09462  -0.00659   0.00000  -0.02031  -0.02047   2.07415
    A9        2.09427  -0.00813   0.00000  -0.02497  -0.02512   2.06916
   A10        2.09429  -0.00920   0.00000  -0.02842  -0.02838   2.06591
   A11        2.09407   0.00304   0.00000   0.00951   0.00949   2.10356
   A12        2.09483   0.00615   0.00000   0.01891   0.01889   2.11372
   A13        2.09448   0.00299   0.00000   0.00797   0.00785   2.10232
   A14        2.09459  -0.00280   0.00000  -0.00969  -0.00963   2.08496
   A15        2.09411  -0.00019   0.00000   0.00173   0.00179   2.09590
   A16        2.09440   0.00118   0.00000   0.00208   0.00194   2.09633
   A17        2.09453  -0.00033   0.00000   0.00011   0.00018   2.09472
   A18        2.09426  -0.00086   0.00000  -0.00220  -0.00213   2.09213
   A19        1.91114   0.00525   0.00000   0.02306   0.02306   1.93420
   A20        1.91063   0.00340   0.00000   0.01466   0.01455   1.92518
   A21        1.91063   0.00497   0.00000   0.02118   0.02106   1.93169
   A22        1.91063   0.00195   0.00000   0.00946   0.00935   1.91998
   A23        1.91063  -0.00483   0.00000  -0.02297  -0.02308   1.88755
   A24        1.91063  -0.00223   0.00000  -0.00853  -0.00863   1.90200
   A25        1.91063  -0.00327   0.00000  -0.01380  -0.01392   1.89671
   A26        1.91063  -0.00403   0.00000  -0.02072  -0.02085   1.88978
   A27        1.91063  -0.00381   0.00000  -0.01944  -0.01958   1.89105
   A28        1.91063   0.01057   0.00000   0.06777   0.06795   1.97858
   A29        1.91063   0.00425   0.00000   0.00220   0.00175   1.91238
   A30        1.91063  -0.00343   0.00000  -0.01474  -0.01471   1.89592
   A31        1.91063  -0.00355   0.00000  -0.01507  -0.01507   1.89556
   A32        1.91063   0.00328   0.00000   0.01573   0.01565   1.92628
   A33        1.91063   0.00088   0.00000   0.00302   0.00300   1.91363
[...]
 8,0.00000403,0.00000212,0.00000075,0.00000180,0.,-0.00000053,0.0000041
 2,-0.00000109,-0.00042943,-0.00039773,-0.00060222,-0.00028987,-0.00052
 607,0.00000227,0.00024831,-0.00061188,-0.00008696,0.00005642,-0.000157
 34,0.00003926,0.00000924,0.00014181,0.00007306,0.00011146,0.00009735,0
 .00002395,0.00001734,-0.00000254,-0.00005144,0.00000635,0.00003070,0.0
 0002525,-0.00004441,0.00002762,0.00002151,-0.01082817,-0.00101325,-0.0
 1404196,0.00031290,-0.00068693,-0.00114363,0.00032651,-0.00008584,0.00
 021480,-0.00012721,0.00001175,-0.00004256,-0.00000526,0.00027845,0.000
 88276,-0.14477189,0.00234516,-0.12391830,-0.01228516,0.00034272,-0.016
 93977,0.01194463,-0.00022966,0.01607013,0.15748787,0.00007859,0.000099
 08,-0.00002891,-0.00006048,0.00010681,-0.00015524,-0.00001753,0.000001
 24,0.00002257,0.00000614,0.00000337,0.00000718,-0.00000526,0.00000295,
 0.00000253,-0.00003911,0.00000281,0.00000516,-0.00003901,0.00001221,0.
 00004661,-0.00000386,0.00000103,-0.00000074,-0.00001055,0.00001072,0.0
 0000386,-0.00003356,0.00002505,-0.00004974,-0.00000248,0.00000202,0.00
 001106,-0.00001044,0.00000620,-0.00000060,-0.00000102,-0.00000372,-0.0
 0000193,0.00000273,-0.00000077,0.00000074,-0.00000074,0.00000463,-0.00
 000009,0.00126330,-0.00081285,0.00163629,0.00008614,-0.00002127,-0.000
 19503,-0.00074641,-0.00034921,-0.00034964,-0.00001524,0.00012516,0.000
 11902,-0.00007165,-0.00002163,-0.00004187,-0.00024016,-0.00012476,-0.0
 0012806,-0.00005695,0.00001148,0.00002110,-0.00003415,0.00001223,0.000
 08169,0.00007803,0.00005936,-0.00012853,0.01650708,-0.00066622,0.02227
 324,-0.00077984,0.00094676,0.00093870,-0.00037253,-0.00009361,0.000123
 50,-0.00003168,-0.00006998,-0.00015728,-0.00002750,0.00016993,-0.00054
 884,0.00183777,-0.04845468,0.00227470,-0.01673000,0.00015411,-0.022400
 62,-0.00102810,-0.00034534,-0.00075941,-0.00393484,0.05360564,-0.00002
 982,-0.00008457,0.00002358,0.00026993,0.00012822,0.00011611,-0.0001445
 2,0.00003293,-0.00001301,0.00002795,0.00000721,-0.00000819,0.00000038,
 -0.00000007,-0.00000035,0.00003544,0.00000967,-0.00000768,0.00004236,0
 .00000614,-0.00001527,0.00000119,0.00000497,-0.00000039,0.00000354,-0.
 00000643,-0.00000282,0.00009333,-0.00002187,0.00005874,-0.00001017,-0.
 00000115,-0.00001286,-0.00000052,0.00000168,-0.00000109,0.00000455,0.0
 0000530,0.00000422,-0.00000026,0.00000302,-0.00000216,0.00000154,0.000
 00232,-0.00000043,-0.00153091,0.00050325,-0.00088978,-0.00053698,-0.00
 026072,-0.00004572,0.00046587,-0.00057746,0.00038868,0.00016900,-0.000
 27670,-0.00006307,0.00004294,-0.00008074,-0.00010557,0.00035560,0.0002
 7477,0.00018462,0.00004999,0.00003551,-0.00004470,-0.00006594,-0.00003
 463,-0.00015794,-0.00002139,-0.00014396,0.00016226,0.00170619,-0.00075
 663,-0.00065513,0.00060384,-0.00038500,0.00084165,-0.00000641,0.000162
 05,0.00024544,0.00000808,0.00005251,-0.00003850,-0.00009962,-0.0000735
 9,0.00040104,-0.12420373,0.00327223,-0.21266422,0.00174465,0.00067541,
 0.00110813,-0.01840864,-0.00015429,-0.02154069,0.13937025,-0.00284096,
 0.23126371,0.00059479,-0.00037535,-0.00090747,0.00078211,0.00032410,0.
 00036144,-0.00015255,0.00031568,0.00010126,0.00017588,-0.00003529,-0.0
 0005189,-0.00010018,-0.00010815,0.00008020,-0.00027950,0.00002617,-0.0
 0014137,-0.00035330,-0.00005575,0.00073826,-0.00001179,-0.00004034,0.0
 0003074,-0.00000166,0.00002451,-0.00002084,-0.00014825,-0.00002598,0.0
 0008815,0.00001141,-0.00000154,-0.00001406,-0.00004618,0.00003742,-0.0
 0002738,-0.00001624,-0.00002119,-0.00000320,-0.00000959,-0.00001793,0.
 00000598,0.00000928,0.00000575,0.00000125,-0.01051151,-0.00356154,-0.0
 1075322,-0.00099003,-0.00166507,0.00055966,0.00011875,0.00008755,0.000
 16560,-0.00035786,0.00000139,-0.00062531,0.00010812,-0.00007819,-0.000
 02135,0.00099256,0.00088751,0.00036180,0.00035285,0.00001350,-0.000281
 03,-0.00008140,-0.00005180,-0.00009715,-0.00034334,-0.00031065,0.00026
 420,-0.11022827,0.00304404,-0.04824884,0.00919148,-0.00076125,0.014499
 74,0.00061955,0.00000055,0.00028482,0.00077071,0.00046615,0.00127304,-
 0.00152773,-0.00015171,0.00517303,-0.02006063,0.00429643,-0.02166042,0
 .00175652,-0.00168773,0.00065803,0.00035538,-0.00086831,-0.00053455,-0
 .00195344,0.00306760,0.00010808,0.52589255,-0.00032938,-0.00055820,0.0
 0017851,0.00077915,0.00040075,0.00050246,-0.00032472,0.00016810,-0.000
 00068,0.00011865,-0.00002142,-0.00008297,-0.00006939,-0.00000892,0.000
 01414,0.00024528,0.00017599,-0.00011455,0.00040989,-0.00102739,-0.0007
 7509,0.00000969,0.00004238,0.00001006,0.00002020,-0.00004220,-0.000022
 66,0.00028974,-0.00008064,0.00008795,0.00000615,-0.00004367,-0.0000121
 6,0.00001943,-0.00001473,0.00000136,0.00001736,0.00002505,0.00001089,0
 .00000898,0.00001715,-0.00000919,0.00000062,0.00000455,0.00000062,-0.0
 1076614,-0.00046564,-0.01349851,-0.00245761,-0.00359256,0.00067381,-0.
 00007031,0.00018244,0.00017720,-0.00097962,0.00013022,-0.00122907,0.00
 033864,0.00001694,0.00008467,0.00051303,-0.00016108,0.00066369,-0.0000
 4522,0.00004758,-0.00021454,-0.00008849,0.00003453,-0.00011187,-0.0002
 5962,0.00002164,-0.00024935,-0.00877533,-0.07252025,-0.01515608,-0.001
 44104,0.00024402,-0.00013947,-0.00024014,-0.00008865,-0.00068185,0.000
 64948,0.00048172,0.00166111,0.00020089,0.00027081,0.00010061,0.0219397
 0,-0.00497751,0.02392164,0.00129662,0.00102355,0.00122111,-0.00060430,
 0.00092472,0.00042896,0.00414071,-0.00473363,0.00091431,-0.02224209,0.
 56548053,0.00078438,0.00005776,-0.00040494,0.00063401,0.00048856,0.000
 04005,-0.00041635,0.00009438,0.00017194,0.00009757,0.00008324,-0.00002
 892,0.00003135,-0.00001206,0.00003963,-0.00024999,-0.00012360,0.000012
 81,-0.00013320,-0.00067125,0.00001045,-0.00002108,-0.00000118,0.000004
 57,-0.00002989,0.00004021,-0.00002136,0.00005934,0.00004220,-0.0000703
 8,-0.00003154,0.00001983,0.00001511,-0.00005559,0.00003868,-0.00001529
 ,0.00000728,-0.00000665,-0.00000118,0.00001307,0.00000177,-0.00000025,
 0.00000216,0.00002730,-0.00000214,-0.00456554,-0.00448813,-0.00030724,
 0.00121802,0.00143549,-0.00000021,-0.00005145,-0.00011841,-0.00005050,
 0.00034998,0.00001158,0.00050180,-0.00006720,0.00001487,0.00008116,0.0
 0052845,0.00037507,0.00033461,0.00012252,-0.00013525,-0.00049854,0.000
 11819,-0.00003981,0.00006855,-0.00008449,0.00036887,-0.00045559,-0.037
 81635,0.00090464,-0.12977317,-0.01755182,-0.00135934,-0.03501118,-0.00
 087782,0.00000538,0.00169562,-0.00140563,-0.00039058,0.00192639,0.0029
 5979,-0.00015743,-0.00400180,-0.00675776,0.00245832,-0.00474891,0.0006
 1476,-0.00094225,0.00014337,0.00120712,-0.00088571,0.00082117,0.000969
 01,-0.00077605,0.00097275,-0.06011160,-0.01173483,0.49837498,-0.000220
 01,-0.00003112,0.00015473,-0.00020278,-0.00016688,0.00012585,0.0001014
 1,-0.00009385,-0.00002078,-0.00006560,-0.00000096,0.00000020,0.0000388
 2,0.00001752,-0.00002075,0.00010193,-0.00003237,0.00002857,0.00012353,
 0.00006957,-0.00012459,0.00000997,-0.00000542,-0.00000540,0.00002159,-
 0.00001795,0.00000455,0.00002208,-0.00005354,0.00002106,0.00002067,-0.
 00001577,-0.00000380,0.00002994,-0.00002024,0.00000010,-0.00000300,0.0
 0000487,0.00000198,-0.00000568,0.00000425,-0.00000110,0.00000183,-0.00
 001521,-0.00000013,0.00012241,0.00245203,-0.00214153,-0.00064040,-0.00
 114728,0.00020580,-0.00000949,0.00007533,0.00004933,-0.00027798,0.0000
 5804,-0.00040237,0.00007058,0.00001271,-0.00003685,-0.00003149,-0.0003
 2098,0.00007627,-0.00008597,0.00000211,0.00004886,-0.00000951,0.000039
 33,-0.00003048,0.00002914,0.00007661,-0.00010142,-0.01525393,-0.017949
 57,-0.00316022,0.00078223,0.00059941,0.00145752,-0.00000145,0.00006296
 ,-0.00000573,0.00068249,0.00033670,-0.00059219,0.00000139,0.00030158,0
 .00015447,0.00048813,-0.00178640,0.00075168,0.00010164,0.00109423,-0.0
 0028749,-0.00012520,-0.00002088,-0.00000039,0.00043611,0.00027833,0.00
 014338,-0.12356013,-0.11321910,0.01003309,0.13594993,0.00018947,0.0000
 9907,-0.00026901,-0.00021232,-0.00018210,-0.00004683,0.00024110,0.0000
 3442,0.00004661,-0.00000496,-0.00003101,0.00000019,0.00001029,-0.00005
 334,0.00003142,-0.00014172,-0.00004525,-0.00004461,-0.00030092,-0.0000
 8344,0.00021074,0.00000064,-0.00004248,0.00000941,0.00003658,-0.000020
 90,-0.00000929,-0.00014100,-0.00004690,-0.00000795,0.00002872,-0.00000
 078,0.00000447,0.00001321,-0.00000494,-0.00000910,-0.00001819,-0.00001
 168,-0.00000302,-0.00001218,-0.00000806,0.00000320,0.00000561,-0.00002
 023,0.00000057,0.00144310,0.00170162,-0.00022569,-0.00015725,-0.000254
 46,0.00014548,-0.00004297,0.00003230,-0.00003493,-0.00007295,0.0000377
 1,-0.00011755,0.00001078,-0.00000454,-0.00004963,-0.00010349,-0.000140
 35,0.00000669,-0.00005213,-0.00000469,0.00007670,-0.00003419,0.0000284
 0,-0.00000826,0.00006048,-0.00000022,-0.00002976,-0.00315895,-0.003517
 56,-0.00059586,0.00043890,0.00042344,0.00042612,-0.00008106,-0.0001280
 7,-0.00001220,0.00030365,0.00023787,-0.00086732,0.00027085,0.00024541,
 -0.00009863,0.00143444,0.00154276,0.00052905,-0.00058758,0.00073895,-0
 .00003737,0.00000913,-0.00006531,-0.00005262,0.00007099,0.00023769,-0.
 00015550,-0.11243277,-0.22060751,0.01280694,0.12747667,0.24142629,-0.0
 0004699,-0.00006074,-0.00000082,-0.00011116,-0.00006033,0.00021235,0.0
 0002999,-0.00003947,0.00000239,-0.00002396,-0.00002228,-0.00001483,0.0
 0000924,-0.00000622,0.00000191,0.00004233,-0.00001220,-0.00001189,0.00
 000055,0.00004568,-0.00000182,0.00000344,-0.00000303,0.00000218,0.0000
 1322,-0.00001339,-0.00000382,0.00002493,-0.00002256,0.00005908,0.00000
 645,-0.00001015,-0.00001159,0.00001484,-0.00001141,-0.00000574,-0.0000
 0042,0.00000290,0.00000270,-0.00000403,0.00000089,-0.00000067,0.000000
 22,-0.00000687,0.00000021,-0.00071891,0.00160787,-0.00332336,-0.000866
 58,-0.00119698,0.00032540,0.00001548,0.00007178,0.00005514,-0.00031884
 ,0.00003392,-0.00042063,0.00012333,0.00000509,0.00003920,0.00003172,-0
 .00000078,0.00002134,0.00005500,-0.00000940,0.00015137,0.00002880,-0.0
 0001246,-0.00001336,-0.00005856,-0.00009073,0.00037097,-0.01915703,-0.
 02214856,-0.00413403,-0.00121320,-0.00163774,0.00196967,0.00007299,0.0
 0000454,-0.00009955,0.00053297,0.00083490,0.00001980,0.00014568,0.0002
 6769,0.00043171,0.00082658,-0.00150865,0.00090087,0.00039282,0.0006813
 6,0.00017585,0.00004837,0.00016076,-0.00004604,0.00042764,-0.00013882,
 0.00000519,0.00913222,0.01121407,-0.04818837,-0.00591201,-0.01306617,0
 .05348795,-0.00045238,0.00003453,0.00068318,-0.00000299,-0.00001686,0.
 00013525,-0.00024723,-0.00018178,-0.00000841,-0.00008959,0.00004411,-0
 .00001132,0.00006057,0.00012539,-0.00007030,0.00035629,0.00002464,0.00
 009293,0.00110188,0.00049726,-0.00044873,0.00001038,0.00006064,-0.0000
 1797,-0.00002913,-0.00000044,0.00001899,0.00028711,0.00001003,0.000009
 26,-0.00002824,-0.00001426,-0.00000435,0.00001868,-0.00001998,0.000007
 11,0.00002580,0.00002505,0.00000911,0.00001378,0.00002121,-0.00000928,
 -0.00000623,0.00001177,-0.00000190,-0.00113004,0.00166122,-0.00048747,
 -0.00001266,-0.00026524,0.00002678,0.00010995,0.00000192,0.00007548,-0
 .00004098,-0.00000170,-0.00005135,0.00000792,0.00002270,0.00001255,-0.
 00012941,-0.00048902,0.00005065,-0.00006470,-0.00002546,0.00007119,0.0
 0021312,0.00000331,-0.00006356,-0.00009792,0.00009602,0.00005544,-0.01
 234430,0.01528084,0.00103490,0.00066641,-0.00014546,0.00096027,0.00046
 839,-0.00013172,-0.00041136,-0.00000640,-0.00008328,-0.00007645,-0.000
 05886,-0.00025272,0.00002043,-0.00206427,-0.00141441,-0.00411986,0.000
 27252,0.00013720,0.00000904,0.00031269,-0.00037975,0.00001824,-0.00059
 633,0.00137756,-0.00030641,-0.14779565,0.12562297,-0.00705987,0.011554
 94,-0.01593900,0.00074720,0.16084278,0.00024567,-0.00111635,-0.0010097
 0,0.00000976,0.00003624,-0.00000080,-0.00002980,0.00016039,0.00009292,
 0.00005791,-0.00002825,-0.00000688,0.00001002,-0.00002743,0.00001792,-
 0.00008633,-0.00014398,-0.00001273,0.00004368,-0.00137095,-0.00082098,
 -0.00000618,-0.00000281,0.00002004,-0.00002013,0.00002659,-0.00000741,
 -0.00004595,0.00001334,-0.00001398,-0.00000152,0.00000504,-0.00000285,
 -0.00001185,0.00001339,-0.00000646,-0.00000088,-0.00000142,-0.00000264
 ,0.00000266,-0.00000015,0.00000144,0.00000126,0.00000990,0.00000001,-0
 .00025293,-0.00010231,0.00014017,0.00016616,0.00018199,-0.00000573,-0.
 00002453,-0.00000545,-0.00000785,0.00004785,0.00000748,0.00005923,-0.0
 0001401,-0.00001014,0.00000744,0.00007359,0.00013321,-0.00000542,0.000
 04148,-0.00001122,-0.00001397,-0.00001843,-0.00000050,-0.00000384,-0.0
 0000289,-0.00003033,0.00002780,-0.00353778,0.00225969,-0.00143830,-0.0
 0000837,-0.00005321,0.00007168,-0.00008696,0.00029279,0.00036157,0.000
 06235,-0.00012902,-0.00000675,-0.00019303,0.00010003,0.00017057,0.0000
 4727,0.00103670,0.00029120,-0.00010623,0.00056795,-0.00021492,-0.00010
 654,-0.00010514,-0.00013932,0.00017344,0.00022687,-0.00009837,0.126731
 11,-0.21083365,0.00990746,0.01818148,-0.02236981,0.00049469,-0.1408620
 3,0.23198181,-0.00065534,-0.00090616,-0.00000630,-0.00000338,0.0000263
 2,-0.00006191,-0.00003265,-0.00007515,0.00001841,0.00000175,-0.0000006
 2,0.00000949,-0.00005090,0.00007672,-0.00003863,0.00027157,0.00017198,
 -0.00003344,0.00032198,-0.00084351,-0.00053324,0.00001482,0.00004738,0
 .00000589,-0.00001452,-0.00001606,0.00003579,0.00014290,0.00003161,-0.
 00002028,-0.00000136,-0.00000433,0.00000755,0.00001148,-0.00000842,0.0
 0000456,0.00000884,0.00001291,0.00000029,0.00001570,0.00001384,-0.0000
 0539,-0.00000251,0.00000547,0.00000205,-0.00016762,0.00052203,0.000520
 63,0.00005844,-0.00000781,-0.00006154,0.00007313,-0.00000831,0.0000373
 0,0.00001782,-0.00001432,0.00000968,-0.00001562,0.00000671,-0.00001918
 ,-0.00000251,0.00000800,0.00000644,0.00000111,0.00001783,0.00004331,-0
 .00003923,-0.00000054,-0.00006883,0.00002826,-0.00006965,-0.00000025,-
 0.01567607,0.02122038,-0.00117068,-0.00021758,0.00077564,0.00161474,0.
 00036010,-0.00038065,-0.00029708,-0.00000280,0.00002011,-0.00009492,0.
 00005204,-0.00021451,0.00033918,-0.00310402,-0.00084864,-0.00456420,0.
 00027878,-0.00027845,-0.00011686,-0.00021450,-0.00008140,0.00027143,-0
 .00121378,0.00132637,0.00009256,-0.00686512,0.00948202,-0.05001320,-0.
 00141178,0.00224448,-0.00016800,0.01041699,-0.00856614,0.05275154,-0.0
 0016002,-0.00009112,0.00010071,0.00000155,0.00002938,-0.00006280,-0.00
 003334,-0.00002771,0.00002004,0.00000364,0.00000296,0.00000347,-0.0000
 2161,0.00002553,-0.00001416,0.00008159,0.00006827,-0.00001792,0.000081
 59,0.00000123,-0.00009087,0.00000303,0.00002001,0.00000314,-0.00000825
 ,-0.00000786,0.00001161,0.00005143,0.00002815,-0.00001439,-0.00000354,
 -0.00000005,0.00000922,-0.00000067,-0.00000078,0.00000048,0.00000353,0
 .00000455,-0.00000177,0.00001036,0.00000652,-0.00000224,-0.00000163,0.
 00000485,0.00000160,0.00032125,-0.00044117,-0.00025759,0.00012884,0.00
 018567,-0.00000391,-0.00001048,-0.00001340,-0.00001578,0.00004096,0.00
 000325,0.00006557,0.00000853,0.00001053,0.00002012,-0.00012592,0.00002
 919,0.00012921,0.00002226,-0.00000542,-0.00011085,-0.00010836,-0.00001
 340,0.00003636,-0.00041639,-0.00042195,-0.00004247,0.01001888,-0.00038
 582,-0.01851032,-0.00210689,0.00005220,-0.00309808,-0.00006164,-0.0002
 0527,-0.00001529,-0.00001814,0.00027148,-0.00012609,0.00070756,0.00005
 733,-0.00105937,0.00112358,-0.00050178,-0.00040685,-0.00010484,0.00005
 085,0.00007813,-0.00005800,0.00001579,0.00013100,0.00023923,-0.0002902
 0,0.00011723,-0.12320270,0.00528532,0.11753709,-0.01019816,0.00144905,
 0.01570567,-0.01112592,-0.00047930,0.01761557,0.13491868,0.00028140,0.
 00009105,-0.00014582,-0.00004524,-0.00004201,0.00018651,-0.00002652,-0
 .00004211,-0.00001528,-0.00002825,-0.00000518,-0.00000634,0.00003287,-
 0.00001904,0.00000681,-0.00010846,-0.00008305,0.00001698,-0.00017602,0
 .00009759,0.00014334,-0.00000876,-0.00001339,0.00000067,-0.00000325,0.
 00001278,-0.00001157,-0.00002327,0.00000960,0.00004621,-0.00000973,-0.
 00000155,-0.00001426,-0.00000789,0.00000150,-0.00000257,0.00000210,-0.
 00000244,0.00000169,-0.00000596,-0.00000637,0.00000191,-0.00000136,0.0
 0000171,-0.00000087,0.00002397,-0.00017253,-0.00155424,-0.00005066,-0.
 00000363,0.00013973,0.00001159,-0.00000619,-0.00000424,0.00000484,0.00
 000308,-0.00001171,0.00003562,0.00000391,0.00004534,-0.00007881,0.0001
 2499,-0.00017288,0.00015804,-0.00006202,0.00003652,0.00013410,-0.00002
 822,0.00005946,-0.00046293,-0.00018933,0.00044953,0.00149479,-0.001265
 88,-0.00211062,-0.00038344,0.00026498,-0.00000680,-0.00023614,0.000103
 63,0.00024314,0.00027653,0.00023710,-0.00027831,0.00009640,0.00048662,
 -0.00013003,-0.00031035,0.00016605,0.00089548,-0.00010452,-0.00004778,
 0.00009177,0.00024525,0.00019723,0.00006640,-0.00009075,-0.00012967,-0
 .00013884,0.00516316,-0.04991499,-0.00734004,-0.01624621,0.00085767,0.
 02465282,0.01516473,-0.00071129,-0.02368513,-0.00471687,0.05008716,0.0
 0014943,0.00014194,0.00001443,-0.00021244,-0.00012797,0.00019944,0.000
 10001,-0.00005225,-0.00000707,-0.00003600,-0.00001416,-0.00001415,0.00
 000793,-0.00000607,0.00000618,-0.00005318,-0.00002675,-0.00001442,-0.0
 0013932,0.00000214,-0.00003838,-0.00000284,-0.00000903,0.00000139,-0.0
 0000288,0.00000762,-0.00000932,-0.00007463,0.00001473,0.00007891,0.000
 00522,-0.00000130,-0.00002209,0.00000098,-0.00000281,-0.00000424,0.000
 00093,-0.00000258,-0.00000024,-0.00000780,-0.00000660,0.00000482,-0.00
 000111,-0.00000325,-0.00000103,0.00099093,0.00002586,-0.00176264,-0.00
 019474,-0.00011783,0.00016702,0.00000363,0.00001856,-0.00002186,-0.000
 05306,-0.00000609,-0.00002370,0.00007955,0.00004735,0.00013308,0.00017
 201,0.00047281,-0.00003485,0.00019220,0.00001838,0.00019361,-0.0001035
 1,-0.00004844,0.00001797,0.00006871,-0.00011317,0.00076916,0.01485696,
 -0.00099749,-0.02158740,-0.00529280,-0.00028505,-0.00341811,0.00001917
 ,-0.00014657,0.00033786,-0.00013611,0.00008858,0.00046015,0.00088954,0
 .00002631,-0.00166945,0.00142911,-0.00043105,0.00075757,-0.00006266,0.
 00001670,-0.00007685,-0.00086301,0.00056039,0.00042707,-0.00016722,-0.
 00019198,0.00040087,0.11647730,-0.00731634,-0.23162179,0.00100159,-0.0
 0080075,-0.00179076,-0.00130642,0.00072089,0.00150309,-0.12773549,0.00
 854525,0.25664574\\0.00000568,0.00000436,-0.00000400,-0.00000733,-0.00
 000573,0.00000215,0.00001342,-0.00000796,0.00000354,-0.00000512,0.0000
 0685,-0.00000119,-0.00000335,0.00000593,-0.00000253,0.00000180,-0.0000
 0073,0.00000114,-0.00000088,-0.00000177,0.00000073,-0.00000126,-0.0000
 0156,0.00000145,-0.00000009,0.00000019,-0.00000190,-0.00000442,0.00000
 200,-0.00000579,-0.00000410,-0.00000628,0.00000283,-0.00000582,0.00000
 130,-0.00001560,0.00000142,0.00000611,0.00000713,-0.00000303,-0.000001
 64,0.00000363,0.00000209,-0.00000216,0.00000541,0.00000302,-0.00000906
 ,0.00000542,0.00000409,-0.00000375,-0.00000075,-0.00000040,0.00000275,
 0.00000331,-0.00000149,-0.00000341,0.00000142,-0.00000463,0.00000111,-
 0.00000114,-0.00000312,0.00000197,-0.00000557,0.00000290,0.00000276,0.
 00000425,0.00000326,0.00000041,-0.00000266,-0.00000388,-0.00000050,0.0
 0000348,0.00000745,-0.00000069,-0.00001012,-0.00000795,0.00000611,-0.0
 0000237,0.00000243,0.00000017,0.00000252,0.00000521,0.00000577,0.00000
 264,0.00000003,0.00000164,0.00000566,-0.00000534,0.00000785,-0.0000071
 9,0.00000101,-0.00000282,0.00000191,0.00000267,0.00000231,-0.00000113,
 0.00000307,-0.00000415,-0.00000110,-0.00000302,-0.00000435,-0.00000268
 ,0.00000172,-0.00000286,0.00000294,0.00000221,-0.00000243,0.00000266,0
 .00000178,0.00000227,0.00000151\\\@
 The archive entry for this job was punched.


 CHARLIE BROWN -- WHICH DO YOU THINK LASTS LONGER IN LIFE, THE GOOD THINGS 
                  OR THE BAD THINGS?
 LINUS --         GOOD THINGS LAST EIGHT SECONDS ..
                  BAD THINGS LAST THREE WEEKS
 CHARLIE BROWN -- WHAT ABOUT IN BETWEEN?
 SNOOPY --        IN BETWEEN YOU SHOULD TAKE A NAP ...
 Job cpu time:       0 days  0 hours 53 minutes 54.3 seconds.
 Elapsed time:       0 days  0 hours  6 minutes 44.7 seconds.
 File lengths (MBytes):  RWF=    303 Int=      0 D2E=      0 Chk=     14 Scr=      1
 Normal termination of Gaussian 16 at Thu Sep 23 18:45:25 2021.
