 Entering Gaussian System, Link 0=/home/rong/g16/g16
 Input=/home/rong/g16/092321/BrBrbz.gjf
 Output=/home/rong/g16/092321/BrBrbz.log
 Initial command:
 /home/rong/g16/l1.exe "/tmp/Gau-87995.inp" -scrdir="/tmp/"
 Default is to use a total of   8 processors:
                                8 via shared-memory
                                1 via Linda
 Entering Link 1 = /home/rong/g16/l1.exe PID=     87997.
  
 Copyright (c) 1988-2019, Gaussian, Inc.  All Rights Reserved.
  
 This is part of the Gaussian(R) 16 program.  It is based on
 the Gaussian(R) 09 system (copyright 2009, Gaussian, Inc.),
 the Gaussian(R) 03 system (copyright 2003, Gaussian, Inc.),
 the Gaussian(R) 98 system (copyright 1998, Gaussian, Inc.),
 the Gaussian(R) 94 system (copyright 1995, Gaussian, Inc.),
 the Gaussian 92(TM) system (copyright 1992, Gaussian, Inc.),
 the Gaussian 90(TM) system (copyright 1990, Gaussian, Inc.),
 the Gaussian 88(TM) system (copyright 1988, Gaussian, Inc.),
 the Gaussian 86(TM) system (copyright 1986, Carnegie Mellon
 University), and the Gaussian 82(TM) system (copyright 1983,
 Carnegie Mellon University). Gaussian is a federally registered
 trademark of Gaussian, Inc.
  
 This software contains proprietary and confidential information,
 including trade secrets, belonging to Gaussian, Inc.
  
 This software is provided under written license and may be
 used, copied, transmitted, or stored only in accord with that
 written license.
  
 The following legend is applicable only to US Government
 contracts under FAR:
  
                    RESTRICTED RIGHTS LEGEND
  
 Use, reproduction and disclosure by the US Government is
 subject to restrictions as set forth in subparagraphs (a)
 and (c) of the Commercial Computer Software - Restricted
 Rights clause in FAR 52.227-19.
  
 Gaussian, Inc.
 340 Quinnipiac St., Bldg. 40, Wallingford CT 06492
  
  
 ---------------------------------------------------------------
 Warning -- This program may not be used in any manner that
 competes with the business of Gaussian, Inc. or will provide
 assistance to any competitor of Gaussian, Inc.  The licensee
 of this program is prohibited from giving any competitor of
 Gaussian, Inc. access to this program.  By using this program,
 the user acknowledges that Gaussian, Inc. is engaged in the
 business of creating and licensing software in the field of
 computational chemistry and represents and warrants to the
 licensee that it is not a competitor of Gaussian, Inc. and that
 it will not use this program in any manner prohibited above.
 ---------------------------------------------------------------
  

 Cite this work as:
 Gaussian 16, Revision C.01,
 M. J. Frisch, G. W. Trucks, H. B. Schlegel, G. E. Scuseria, 
 M. A. Robb, J. R. Cheeseman, G. Scalmani, V. Barone, 
 G. A. Petersson, H. Nakatsuji, X. Li, M. Caricato, A. V. Marenich, 
 J. Bloino, B. G. Janesko, R. Gomperts, B. Mennucci, H. P. Hratchian, 
 J. V. Ortiz, A. F. Izmaylov, J. L. Sonnenberg, D. Williams-Young, 
 F. Ding, F. Lipparini, F. Egidi, J. Goings, B. Peng, A. Petrone, 
 T. Henderson, D. Ranasinghe, V. G. Zakrzewski, J. Gao, N. Rega, 
 G. Zheng, W. Liang, M. Hada, M. Ehara, K. Toyota, R. Fukuda, 
 J. Hasegawa, M. Ishida, T. Nakajima, Y. Honda, O. Kitao, H. Nakai, 
 T. Vreven, K. Throssell, J. A. Montgomery, Jr., J. E. Peralta, 
 F. Ogliaro, M. J. Bearpark, J. J. Heyd, E. N. Brothers, K. N. Kudin, 
 V. N. Staroverov, T. A. Keith, R. Kobayashi, J. Normand, 
 K. Raghavachari, A. P. Rendell, J. C. Burant, S. S. Iyengar, 
 J. Tomasi, M. Cossi, J. M. Millam, M. Klene, C. Adamo, R. Cammi, 
 J. W. Ochterski, R. L. Martin, K. Morokuma, O. Farkas, 
 J. B. Foresman, and D. J. Fox, Gaussian, Inc., Wallingford CT, 2019.
 
 ******************************************
 Gaussian 16:  ES64L-G16RevC.01  3-Jul-2019
                23-Sep-2021 
 ******************************************
 %mem=15GB
 %chk=BrBrbz.chk
 %nprocshared=8
 Will use up to    8 processors via shared memory.
 -------------------------------------------------
 # opt freq b3lyp/6-31g scrf=(smd,solvent=toluene)
 -------------------------------------------------
 1/18=20,19=15,26=3,38=1/1,3;
 2/9=110,12=2,17=6,18=5,40=1/2;
 3/5=1,6=6,11=2,25=1,30=1,70=32201,71=1,72=13,74=-5/1,2,3;
 4//1;
 5/5=2,38=5,53=13/2;
 6/7=2,8=2,9=2,10=2,28=1/1;
 7//1,2,3,16;
 1/18=20,19=15,26=3/3(2);
 2/9=110/2;
 99//99;
 2/9=110/2;
 3/5=1,6=6,11=2,25=1,30=1,70=32205,71=1,72=13,74=-5/1,2,3;
 4/5=5,16=3,69=1/1;
 5/5=2,38=5,53=13/2;
 7//1,2,3,16;
 1/18=20,19=15,26=3/3(-5);
 2/9=110/2;
 6/7=2,8=2,9=2,10=2,19=2,28=1/1;
 99/9=1/99;
 ------
 BrBrbz
 ------
 Symbolic Z-matrix:
 Charge =  0 Multiplicity = 1
 C                     1.61765  -0.32353   0. 
 C                     3.01281  -0.32353   0. 
 C                     3.71035   0.88422   0. 
 C                     3.01269   2.09273  -0.0012 
 C                     1.61787   2.09265  -0.00168 
 C                     0.92027   0.88445  -0.00068 
 H                     1.06789  -1.27585   0.00045 
 H                     1.06774   3.04493  -0.00263 
 C                     3.7832    3.42612  -0.00128 
 H                     3.98217   3.72314   1.00723 
 H                     4.70761   3.30384  -0.52607 
 H                     3.19515   4.17782  -0.48506 
 O                     5.14034   0.88433   0.00082 
 H                     5.46059   0.10537   0.46155 
 Br                   -0.98973   0.88476  -0.00099 
 Br                    3.96725  -1.97796   0.00228 
 

 GradGradGradGradGradGradGradGradGradGradGradGradGradGradGradGradGradGrad
 Berny optimization.
 Initialization pass.
                           ----------------------------
                           !    Initial Parameters    !
                           ! (Angstroms and Degrees)  !
 --------------------------                            --------------------------
 ! Name  Definition              Value          Derivative Info.                !
 --------------------------------------------------------------------------------
 ! R1    R(1,2)                  1.3952         estimate D2E/DX2                !
 ! R2    R(1,6)                  1.3948         estimate D2E/DX2                !
 ! R3    R(1,7)                  1.0996         estimate D2E/DX2                !
 ! R4    R(2,3)                  1.3947         estimate D2E/DX2                !
 ! R5    R(2,16)                 1.91           estimate D2E/DX2                !
 ! R6    R(3,4)                  1.3954         estimate D2E/DX2                !
 ! R7    R(3,13)                 1.43           estimate D2E/DX2                !
 ! R8    R(4,5)                  1.3948         estimate D2E/DX2                !
 ! R9    R(4,9)                  1.54           estimate D2E/DX2                !
 ! R10   R(5,6)                  1.3951         estimate D2E/DX2                !
 ! R11   R(5,8)                  1.0998         estimate D2E/DX2                !
 ! R12   R(6,15)                 1.91           estimate D2E/DX2                !
 ! R13   R(9,10)                 1.07           estimate D2E/DX2                !
 ! R14   R(9,11)                 1.07           estimate D2E/DX2                !
 ! R15   R(9,12)                 1.07           estimate D2E/DX2                !
 ! R16   R(13,14)                0.96           estimate D2E/DX2                !
 ! A1    A(2,1,6)              119.9985         estimate D2E/DX2                !
 ! A2    A(2,1,7)              119.9972         estimate D2E/DX2                !
 ! A3    A(6,1,7)              120.0043         estimate D2E/DX2                !
 ! A4    A(1,2,3)              120.0086         estimate D2E/DX2                !
 ! A5    A(1,2,16)             119.9808         estimate D2E/DX2                !
 ! A6    A(3,2,16)             120.0105         estimate D2E/DX2                !
 ! A7    A(2,3,4)              119.9942         estimate D2E/DX2                !
 ! A8    A(2,3,13)             120.0128         estimate D2E/DX2                !
 ! A9    A(4,3,13)             119.993          estimate D2E/DX2                !
 ! A10   A(3,4,5)              119.994          estimate D2E/DX2                !
 ! A11   A(3,4,9)              119.9811         estimate D2E/DX2                !
 ! A12   A(5,4,9)              120.0249         estimate D2E/DX2                !
 ! A13   A(4,5,6)              120.0047         estimate D2E/DX2                !
 ! A14   A(4,5,8)              120.0113         estimate D2E/DX2                !
 ! A15   A(6,5,8)              119.984          estimate D2E/DX2                !
 ! A16   A(1,6,5)              120.0            estimate D2E/DX2                !
 ! A17   A(1,6,15)             120.008          estimate D2E/DX2                !
 ! A18   A(5,6,15)             119.992          estimate D2E/DX2                !
 ! A19   A(4,9,10)             109.4712         estimate D2E/DX2                !
 ! A20   A(4,9,11)             109.4712         estimate D2E/DX2                !
 ! A21   A(4,9,12)             109.4712         estimate D2E/DX2                !
 ! A22   A(10,9,11)            109.4713         estimate D2E/DX2                !
 ! A23   A(10,9,12)            109.4712         estimate D2E/DX2                !
 ! A24   A(11,9,12)            109.4712         estimate D2E/DX2                !
 ! A25   A(3,13,14)            109.5            estimate D2E/DX2                !
 ! D1    D(6,1,2,3)              0.0323         estimate D2E/DX2                !
 ! D2    D(6,1,2,16)           179.9532         estimate D2E/DX2                !
 ! D3    D(7,1,2,3)           -179.9729         estimate D2E/DX2                !
 ! D4    D(7,1,2,16)            -0.052          estimate D2E/DX2                !
 ! D5    D(2,1,6,5)              0.0149         estimate D2E/DX2                !
 ! D6    D(2,1,6,15)           179.9892         estimate D2E/DX2                !
 ! D7    D(7,1,6,5)           -179.9798         estimate D2E/DX2                !
 ! D8    D(7,1,6,15)            -0.0056         estimate D2E/DX2                !
 ! D9    D(1,2,3,4)             -0.0568         estimate D2E/DX2                !
 ! D10   D(1,2,3,13)           179.9619         estimate D2E/DX2                !
 ! D11   D(16,2,3,4)          -179.9777         estimate D2E/DX2                !
 ! D12   D(16,2,3,13)            0.041          estimate D2E/DX2                !
 ! D13   D(2,3,4,5)              0.0341         estimate D2E/DX2                !
 ! D14   D(2,3,4,9)           -179.9964         estimate D2E/DX2                !
 ! D15   D(13,3,4,5)          -179.9846         estimate D2E/DX2                !
 ! D16   D(13,3,4,9)            -0.0151         estimate D2E/DX2                !
 ! D17   D(2,3,13,14)          -30.5729         estimate D2E/DX2                !
 ! D18   D(4,3,13,14)          149.4458         estimate D2E/DX2                !
 ! D19   D(3,4,5,6)              0.0131         estimate D2E/DX2                !
 ! D20   D(3,4,5,8)           -179.9995         estimate D2E/DX2                !
 ! D21   D(9,4,5,6)           -179.9563         estimate D2E/DX2                !
 ! D22   D(9,4,5,8)              0.0311         estimate D2E/DX2                !
 ! D23   D(3,4,9,10)           -88.6004         estimate D2E/DX2                !
 ! D24   D(3,4,9,11)            31.3997         estimate D2E/DX2                !
 ! D25   D(3,4,9,12)           151.3996         estimate D2E/DX2                !
 ! D26   D(5,4,9,10)            91.3691         estimate D2E/DX2                !
 ! D27   D(5,4,9,11)          -148.6309         estimate D2E/DX2                !
 ! D28   D(5,4,9,12)           -28.6309         estimate D2E/DX2                !
 ! D29   D(4,5,6,1)             -0.0376         estimate D2E/DX2                !
 ! D30   D(4,5,6,15)           179.9881         estimate D2E/DX2                !
 ! D31   D(8,5,6,1)            179.975          estimate D2E/DX2                !
 ! D32   D(8,5,6,15)             0.0007         estimate D2E/DX2                !
 --------------------------------------------------------------------------------
 Trust Radius=3.00D-01 FncErr=1.00D-07 GrdErr=1.00D-06 EigMax=2.50D+02 EigMin=1.00D-04
 Number of steps in this run=     83 maximum allowed number of steps=    100.
 GradGradGradGradGradGradGradGradGradGradGradGradGradGradGradGradGradGrad

                          Input orientation:                          
 ---------------------------------------------------------------------
 Center     Atomic      Atomic             Coordinates (Angstroms)
 Number     Number       Type             X           Y           Z
 ---------------------------------------------------------------------
      1          6           0        1.617647   -0.323529    0.000000
      2          6           0        3.012807   -0.323529    0.000000
      3          6           0        3.710345    0.884222    0.000000
      4          6           0        3.012691    2.092731   -0.001199
      5          6           0        1.617866    2.092653   -0.001678
      6          6           0        0.920265    0.884447   -0.000682
      7          1           0        1.067888   -1.275846    0.000450
      8          1           0        1.067744    3.044934   -0.002631
      9          6           0        3.783195    3.426119   -0.001282
     10          1           0        3.982168    3.723136    1.007227
     11          1           0        4.707614    3.303839   -0.526065
     12          1           0        3.195154    4.177824   -0.485064
     13          8           0        5.140345    0.884326    0.000824
     14          1           0        5.460590    0.105368    0.461550
     15         35           0       -0.989735    0.884764   -0.000995
     16         35           0        3.967252   -1.977957    0.002284
 ---------------------------------------------------------------------
                    Distance matrix (angstroms):
                    1          2          3          4          5
     1  C    0.000000
     2  C    1.395160   0.000000
     3  C    2.416205   1.394712   0.000000
     4  C    2.790065   2.416260   1.395427   0.000000
     5  C    2.416183   2.789946   2.416356   1.394825   0.000000
     6  C    1.394829   2.416183   2.790080   2.416236   1.395138
     7  H    1.099610   2.165553   3.412986   3.889675   3.413102
     8  H    3.413055   3.889707   3.413506   2.165528   1.099761
     9  C    4.330065   3.827971   2.542941   1.540000   2.542987
    10  H    4.793847   4.281317   3.024538   2.148263   3.044058
    11  H    4.794001   4.038183   2.669427   2.148263   3.359836
    12  H    4.794372   4.531084   3.368758   2.148263   2.658842
    13  O    3.724019   2.446494   1.430000   2.446867   3.723965
    14  H    3.894252   2.527573   1.970533   3.186841   4.350909
    15  Br   2.873746   4.180947   4.700080   4.180741   2.873774
    16  Br   2.873635   1.910000   2.873686   4.181112   4.699946
                    6          7          8          9         10
     6  C    0.000000
     7  H    2.165331   0.000000
     8  H    2.165516   4.320781   0.000000
     9  C    3.828376   5.429675   2.742076   0.000000
    10  H    4.295264   5.873369   3.158107   1.070000   0.000000
    11  H    4.524765   5.873529   3.686417   1.070000   1.747303
    12  H    4.031883   5.873969   2.458059   1.070000   1.747303
    13  O    4.220080   4.609908   4.610240   2.881418   3.226928
    14  H    4.629814   4.627764   5.305997   3.749033   3.946105
    15  Br   1.910000   2.983631   2.983212   5.407341   5.813148
    16  Br   4.180609   2.983165   5.799707   5.407210   5.789007
                   11         12         13         14         15
    11  H    0.000000
    12  H    1.747303   0.000000
    13  O    2.513745   3.855774   0.000000
    14  H    3.431119   4.755332   0.960000   0.000000
    15  Br   6.211876   5.347135   6.130080   6.513686   0.000000
    16  Br   5.359539   6.223125   3.093349   2.604079   5.724238
                   16
    16  Br   0.000000
 Stoichiometry    C7H6Br2O
 Framework group  C1[X(C7H6Br2O)]
 Deg. of freedom    42
 Full point group                 C1      NOp   1
 Largest Abelian subgroup         C1      NOp   1
 Largest concise Abelian subgroup C1      NOp   1
                         Standard orientation:                         
 ---------------------------------------------------------------------
 Center     Atomic      Atomic             Coordinates (Angstroms)
 Number     Number       Type             X           Y           Z
 ---------------------------------------------------------------------
      1          6           0       -0.243368   -0.760741   -0.002054
      2          6           0        1.030842   -0.192550   -0.006248
      3          6           0        1.176039    1.194582   -0.008631
      4          6           0        0.046685    2.014200   -0.008019
      5          6           0       -1.227190    1.446073   -0.004305
      6          6           0       -1.372256    0.058502   -0.000926
      7          1           0       -0.357625   -1.854397    0.000273
      8          1           0       -2.117450    2.091760   -0.003830
      9          6           0        0.207355    3.545793   -0.010733
     10          1           0        0.270786    3.899549    0.997103
     11          1           0        1.100043    3.809836   -0.538264
     12          1           0       -0.637130    3.992153   -0.492924
     13          8           0        2.482029    1.777057   -0.012104
     14          1           0        3.092972    1.196713    0.447841
     15         35           0       -3.116805   -0.719072    0.004502
     16         35           0        2.576334   -1.314849   -0.006441
 ---------------------------------------------------------------------
 Rotational constants (GHZ):           0.9532541           0.3419182           0.2520929
 Standard basis: 6-31G (6D, 7F)
 There are   132 symmetry adapted cartesian basis functions of A   symmetry.
 There are   132 symmetry adapted basis functions of A   symmetry.
   132 basis functions,   354 primitive gaussians,   132 cartesian basis functions
    63 alpha electrons       63 beta electrons
       nuclear repulsion energy      1025.1437099064 Hartrees.
 NAtoms=   16 NActive=   16 NUniq=   16 SFac= 1.00D+00 NAtFMM=   60 NAOKFM=F Big=F
 Integral buffers will be    131072 words long.
 Raffenetti 2 integral format.
 Two-electron integral symmetry is turned on.
 ------------------------------------------------------------------------------
 Polarizable Continuum Model (PCM)
 =================================
 Model                : PCM.
 Atomic radii         : SMD-Coulomb.
 Polarization charges : Total charges.
 Charge compensation  : None.
 Solution method      : On-the-fly selection.
 Cavity type          : VdW (van der Waals Surface) (Alpha=1.000).
 Cavity algorithm     : GePol (No added spheres)
                        Default sphere list used, NSphG=   16.
                        Lebedev-Laikov grids with approx.  5.0 points / Ang**2.
                        Smoothing algorithm: York/Karplus (Gamma=1.0000).
                        Polarization charges: spherical gaussians, with
                                              point-specific exponents (IZeta= 3).
                        Self-potential: point-specific (ISelfS= 7).
                        Self-field    : sphere-specific E.n sum rule (ISelfD= 2).
 1st derivatives      : Analytical E(r).r(x)/FMM algorithm (CHGder, D1EAlg=3).
                        Cavity 1st derivative terms included.
 Solvent              : Toluene, Eps=   2.374100 Eps(inf)=   2.238315
 ------------------------------------------------------------------------------
 Spheres list:
 ISph  on   Nord     Re0    Alpha      Xe            Ye            Ze
    1   C      1    1.8500  1.000     -0.243368     -0.760741     -0.002054
    2   C      2    1.8500  1.000      1.030842     -0.192550     -0.006248
    3   C      3    1.8500  1.000      1.176039      1.194582     -0.008631
    4   C      4    1.8500  1.000      0.046685      2.014200     -0.008019
    5   C      5    1.8500  1.000     -1.227190      1.446073     -0.004305
    6   C      6    1.8500  1.000     -1.372256      0.058502     -0.000926
    7   H      7    1.2000  1.000     -0.357625     -1.854397      0.000273
    8   H      8    1.2000  1.000     -2.117450      2.091760     -0.003830
    9   C      9    1.8500  1.000      0.207355      3.545793     -0.010733
   10   H     10    1.2000  1.000      0.270786      3.899549      0.997103
   11   H     11    1.2000  1.000      1.100043      3.809836     -0.538264
   12   H     12    1.2000  1.000     -0.637130      3.992153     -0.492924
   13   O     13    2.2940  1.000      2.482029      1.777057     -0.012104
   14   H     14    1.2000  1.000      3.092972      1.196713      0.447841
   15  Br     15    3.0600  1.000     -3.116805     -0.719072      0.004502
   16  Br     16    3.0600  1.000      2.576334     -1.314849     -0.006441
 ------------------------------------------------------------------------------
 ------------------------------------------------------------------------------
 Atomic radii for non-electrostatic terms: SMD-CDS.
 ------------------------------------------------------------------------------
 Nuclear repulsion after PCM non-electrostatic terms =     1025.1336886312 Hartrees.
 One-electron integrals computed using PRISM.
 NBasis=   132 RedAO= T EigKep=  5.71D-04  NBF=   132
 NBsUse=   132 1.00D-06 EigRej= -1.00D+00 NBFU=   132
 ExpMin= 1.43D-01 ExpMax= 5.74D+05 ExpMxC= 5.74D+03 IAcc=3 IRadAn=         5 AccDes= 0.00D+00
 Harris functional with IExCor=  402 and IRadAn=       5 diagonalized for initial guess.
 HarFok:  IExCor=  402 AccDes= 0.00D+00 IRadAn=         5 IDoV= 1 UseB2=F ITyADJ=14
 ICtDFT=  3500011 ScaDFX=  1.000000  1.000000  1.000000  1.000000
 FoFCou: FMM=F IPFlag=           0 FMFlag=      100000 FMFlg1=           0
         NFxFlg=           0 DoJE=T BraDBF=F KetDBF=T FulRan=T
         wScrn=  0.000000 ICntrl=       500 IOpCl=  0 I1Cent=   200000004 NGrid=           0
         NMat0=    1 NMatS0=      1 NMatT0=    0 NMatD0=    1 NMtDS0=    0 NMtDT0=    0
 Petite list used in FoFCou.
 Requested convergence on RMS density matrix=1.00D-08 within 128 cycles.
 Requested convergence on MAX density matrix=1.00D-06.
 Requested convergence on             energy=1.00D-06.
 No special actions if energy rises.
 Inv3:  Mode=1 IEnd=     9419952.
 Iteration    1 A*A^-1 deviation from unit magnitude is 4.22D-15 for   1755.
 Iteration    1 A*A^-1 deviation from orthogonality  is 1.80D-15 for   1738    601.
 Iteration    1 A^-1*A deviation from unit magnitude is 3.77D-15 for   1755.
 Iteration    1 A^-1*A deviation from orthogonality  is 1.40D-15 for   1636    581.
 Error on total polarization charges =  0.00791
 SCF Done:  E(RB3LYP) =  -5488.64781101     A.U. after   14 cycles
            NFock= 14  Conv=0.20D-08     -V/T= 2.0043
 SMD-CDS (non-electrostatic) energy       (kcal/mol) =      -6.29
 (included in total energy above)

 **********************************************************************

            Population analysis using the SCF Density.

 **********************************************************************

 Orbital symmetries:
       Occupied  (A) (A) (A) (A) (A) (A) (A) (A) (A) (A) (A) (A)
                 (A) (A) (A) (A) (A) (A) (A) (A) (A) (A) (A) (A)
                 (A) (A) (A) (A) (A) (A) (A) (A) (A) (A) (A) (A)
                 (A) (A) (A) (A) (A) (A) (A) (A) (A) (A) (A) (A)
                 (A) (A) (A) (A) (A) (A) (A) (A) (A) (A) (A) (A)
                 (A) (A) (A)
       Virtual   (A) (A) (A) (A) (A) (A) (A) (A) (A) (A) (A) (A)
                 (A) (A) (A) (A) (A) (A) (A) (A) (A) (A) (A) (A)
                 (A) (A) (A) (A) (A) (A) (A) (A) (A) (A) (A) (A)
                 (A) (A) (A) (A) (A) (A) (A) (A) (A) (A) (A) (A)
                 (A) (A) (A) (A) (A) (A) (A) (A) (A) (A) (A) (A)
                 (A) (A) (A) (A) (A) (A) (A) (A) (A)
 The electronic state is 1-A.
 Alpha  occ. eigenvalues -- -482.79914-482.78298 -61.78001 -61.76436 -56.32797
 Alpha  occ. eigenvalues --  -56.32366 -56.32322 -56.31258 -56.30816 -56.30791
 Alpha  occ. eigenvalues --  -19.17693 -10.26941 -10.25907 -10.25312 -10.21734
 Alpha  occ. eigenvalues --  -10.21716 -10.20863 -10.17363  -8.55438  -8.53938
 Alpha  occ. eigenvalues --   -6.52413  -6.50995  -6.50953  -6.50912  -6.49475
 Alpha  occ. eigenvalues --   -6.49468  -2.64041  -2.63643  -2.63559  -2.62577
 Alpha  occ. eigenvalues --   -2.62427  -2.62424  -2.62146  -2.62120  -2.60942
 Alpha  occ. eigenvalues --   -2.60940  -1.06118  -0.89764  -0.83432  -0.81416
 Alpha  occ. eigenvalues --   -0.76159  -0.73054  -0.70446  -0.62082  -0.60126
 Alpha  occ. eigenvalues --   -0.55531  -0.51213  -0.47501  -0.44440  -0.44185
 Alpha  occ. eigenvalues --   -0.42801  -0.40706  -0.40282  -0.39065  -0.37284
 Alpha  occ. eigenvalues --   -0.36590  -0.34554  -0.33331  -0.30949  -0.29554
 Alpha  occ. eigenvalues --   -0.29450  -0.25738  -0.23533
 Alpha virt. eigenvalues --   -0.02309  -0.02084  -0.01134   0.01738   0.07614
 Alpha virt. eigenvalues --    0.12278   0.13283   0.14807   0.15694   0.17890
 Alpha virt. eigenvalues --    0.19102   0.21148   0.23210   0.28776   0.29683
 Alpha virt. eigenvalues --    0.31753   0.33199   0.41876   0.43667   0.46077
 Alpha virt. eigenvalues --    0.47068   0.49156   0.50271   0.50605   0.52398
 Alpha virt. eigenvalues --    0.52508   0.53520   0.55123   0.56040   0.56807
 Alpha virt. eigenvalues --    0.58618   0.61133   0.62329   0.63026   0.63860
 Alpha virt. eigenvalues --    0.64371   0.66879   0.70971   0.74579   0.75871
 Alpha virt. eigenvalues --    0.77639   0.78603   0.78716   0.81849   0.85787
 Alpha virt. eigenvalues --    0.87600   0.93940   0.95974   0.98251   0.98979
 Alpha virt. eigenvalues --    0.99367   1.02168   1.04490   1.09306   1.12199
 Alpha virt. eigenvalues --    1.13109   1.17236   1.20535   1.26794   1.28839
 Alpha virt. eigenvalues --    1.35401   1.41277   1.45300   1.77941   2.01226
 Alpha virt. eigenvalues --    6.67113   6.68699  40.29700  40.59773
          Condensed to atoms (all electrons):
               1          2          3          4          5          6
     1  C    5.115179   0.372765  -0.002372  -0.047146  -0.025798   0.433591
     2  C    0.372765   5.816970   0.200124  -0.082369  -0.076145  -0.005094
     3  C   -0.002372   0.200124   5.086510   0.373353  -0.007262  -0.063427
     4  C   -0.047146  -0.082369   0.373353   5.043696   0.478778  -0.011715
     5  C   -0.025798  -0.076145  -0.007262   0.478778   5.128229   0.392641
     6  C    0.433591  -0.005094  -0.063427  -0.011715   0.392641   5.387630
     7  H    0.343525  -0.020360   0.003466   0.000493   0.004343  -0.022507
     8  H    0.004534   0.000247   0.005717  -0.023425   0.349400  -0.036196
     9  C   -0.000310   0.010013  -0.044003   0.317817  -0.051771   0.007299
    10  H    0.000038  -0.000199  -0.002506  -0.031303  -0.001479  -0.000195
    11  H   -0.000004   0.000487  -0.005405  -0.032592   0.002482  -0.000246
    12  H   -0.000000  -0.000168   0.005411  -0.034949  -0.004388   0.000276
    13  O    0.004139  -0.106210   0.306642  -0.071079   0.003833  -0.000131
    14  H    0.000758  -0.008688  -0.034392   0.007487  -0.000072  -0.000047
    15  Br  -0.062782   0.002086   0.000886   0.001043  -0.060775   0.224490
    16  Br  -0.056388   0.227830  -0.077126   0.000316   0.000752   0.001564
               7          8          9         10         11         12
     1  C    0.343525   0.004534  -0.000310   0.000038  -0.000004  -0.000000
     2  C   -0.020360   0.000247   0.010013  -0.000199   0.000487  -0.000168
     3  C    0.003466   0.005717  -0.044003  -0.002506  -0.005405   0.005411
     4  C    0.000493  -0.023425   0.317817  -0.031303  -0.032592  -0.034949
     5  C    0.004343   0.349400  -0.051771  -0.001479   0.002482  -0.004388
     6  C   -0.022507  -0.036196   0.007299  -0.000195  -0.000246   0.000276
     7  H    0.509839  -0.000151   0.000001   0.000000  -0.000000   0.000000
     8  H   -0.000151   0.530918  -0.007480   0.000512   0.000130   0.003695
     9  C    0.000001  -0.007480   5.106865   0.373528   0.378197   0.368999
    10  H    0.000000   0.000512   0.373528   0.544823  -0.026871  -0.029020
    11  H   -0.000000   0.000130   0.378197  -0.026871   0.528503  -0.028639
    12  H    0.000000   0.003695   0.368999  -0.029020  -0.028639   0.562796
    13  O   -0.000042  -0.000037  -0.000816   0.000936   0.003822   0.000314
    14  H   -0.000001   0.000002  -0.000089   0.000031  -0.000193  -0.000007
    15  Br   0.002002   0.002728  -0.000126   0.000002   0.000002  -0.000009
    16  Br   0.001999   0.000009  -0.000129   0.000002   0.000004   0.000002
              13         14         15         16
     1  C    0.004139   0.000758  -0.062782  -0.056388
     2  C   -0.106210  -0.008688   0.002086   0.227830
     3  C    0.306642  -0.034392   0.000886  -0.077126
     4  C   -0.071079   0.007487   0.001043   0.000316
     5  C    0.003833  -0.000072  -0.060775   0.000752
     6  C   -0.000131  -0.000047   0.224490   0.001564
     7  H   -0.000042  -0.000001   0.002002   0.001999
     8  H   -0.000037   0.000002   0.002728   0.000009
     9  C   -0.000816  -0.000089  -0.000126  -0.000129
    10  H    0.000936   0.000031   0.000002   0.000002
    11  H    0.003822  -0.000193   0.000002   0.000004
    12  H    0.000314  -0.000007  -0.000009   0.000002
    13  O    8.243659   0.241353   0.000001  -0.006716
    14  H    0.241353   0.393033  -0.000000   0.023679
    15  Br   0.000001  -0.000000  34.736527  -0.000124
    16  Br  -0.006716   0.023679  -0.000124  34.706611
 Mulliken charges:
               1
     1  C   -0.079731
     2  C   -0.331289
     3  C    0.254385
     4  C    0.111595
     5  C   -0.132768
     6  C   -0.307934
     7  H    0.177391
     8  H    0.169395
     9  C   -0.457998
    10  H    0.171703
    11  H    0.180322
    12  H    0.155688
    13  O   -0.619669
    14  H    0.377147
    15  Br   0.154049
    16  Br   0.177713
 Sum of Mulliken charges =  -0.00000
 Mulliken charges with hydrogens summed into heavy atoms:
               1
     1  C    0.097660
     2  C   -0.331289
     3  C    0.254385
     4  C    0.111595
     5  C    0.036627
     6  C   -0.307934
     9  C    0.049715
    13  O   -0.242522
    15  Br   0.154049
    16  Br   0.177713
 Electronic spatial extent (au):  <R**2>=           3604.8415
 Charge=             -0.0000 electrons
 Dipole moment (field-independent basis, Debye):
    X=              0.3955    Y=              0.8186    Z=              0.9249  Tot=              1.2969
 Quadrupole moment (field-independent basis, Debye-Ang):
   XX=            -82.8227   YY=            -78.5443   ZZ=            -84.7671
   XY=             -4.2551   XZ=              3.0384   YZ=              1.2004
 Traceless Quadrupole moment (field-independent basis, Debye-Ang):
   XX=             -0.7781   YY=              3.5004   ZZ=             -2.7224
   XY=             -4.2551   XZ=              3.0384   YZ=              1.2004
 Octapole moment (field-independent basis, Debye-Ang**2):
  XXX=             12.4120  YYY=            -48.3583  ZZZ=              1.1557  XYY=            -15.9473
  XXY=            -23.1784  XXZ=              9.2897  XZZ=              0.0902  YZZ=            -17.9228
  YYZ=              1.3700  XYZ=              3.8857
 Hexadecapole moment (field-independent basis, Debye-Ang**3):
 XXXX=          -2192.4227 YYYY=          -1237.7032 ZZZZ=            -96.6338 XXXY=            -35.2201
 XXXZ=             30.2539 YYYX=            -59.1574 YYYZ=              2.1160 ZZZX=              1.3411
 ZZZY=              3.2732 XXYY=           -603.1751 XXZZ=           -408.5675 YYZZ=           -232.3169
 XXYZ=             10.5495 YYXZ=              4.6104 ZZXY=             -3.7384
 N-N= 1.025133688631D+03 E-N=-1.513318123298D+04  KE= 5.465281710873D+03
 D1PCM: PCM CHGder 1st derivatives, ID1Alg=3 FixD1E=F DoIter=F DoCFld=F I1PDM=0.
 Calling FoFJK, ICntrl=      2127 FMM=F ISym2X=0 I1Cent= 0 IOpClX= 0 NMat=1 NMatS=1 NMatT=0.
 ***** Axes restored to original set *****
 -------------------------------------------------------------------
 Center     Atomic                   Forces (Hartrees/Bohr)
 Number     Number              X              Y              Z
 -------------------------------------------------------------------
      1        6          -0.010152014   -0.015412859    0.000215177
      2        6          -0.016626800    0.012913146   -0.000013370
      3        6           0.026480509   -0.013069018    0.002214052
      4        6           0.013283539    0.024281888   -0.002355111
      5        6          -0.010895217    0.004086864   -0.001168484
      6        6           0.019011233   -0.000605521    0.000426378
      7        1           0.005970050    0.009330186   -0.000065757
      8        1           0.006305226   -0.008840910   -0.000103836
      9        6          -0.015803621   -0.031093466   -0.003533813
     10        1           0.005541821    0.007152177    0.016378164
     11        1           0.014469542    0.000767962   -0.006065037
     12        1          -0.008224431    0.013019336   -0.006129236
     13        8          -0.030739347    0.025552955   -0.005302822
     14        1           0.007525606   -0.017088967    0.004957799
     15       35          -0.011566607   -0.000467187    0.000001211
     16       35           0.005420510   -0.010526586    0.000544684
 -------------------------------------------------------------------
 Cartesian Forces:  Max     0.031093466 RMS     0.012538357

 GradGradGradGradGradGradGradGradGradGradGradGradGradGradGradGradGradGrad
 Berny optimization.
 FormGI is forming the generalized inverse of G from B-inverse, IUseBI=4.
 Internal  Forces:  Max     0.023212430 RMS     0.006436847
 Search for a local minimum.
 Step number   1 out of a maximum of   83
 All quantities printed in internal units (Hartrees-Bohrs-Radians)
 Mixed Optimization -- RFO/linear search
 Second derivative matrix not updated -- first step.
 ITU=  0
     Eigenvalues ---    0.00237   0.01295   0.01387   0.01998   0.02152
     Eigenvalues ---    0.02154   0.02155   0.02155   0.02155   0.02156
     Eigenvalues ---    0.02157   0.07243   0.07243   0.16000   0.16000
     Eigenvalues ---    0.16000   0.16000   0.16000   0.16000   0.17771
     Eigenvalues ---    0.17771   0.23479   0.23493   0.25000   0.25000
     Eigenvalues ---    0.25000   0.25000   0.25000   0.28519   0.33709
     Eigenvalues ---    0.33725   0.37230   0.37230   0.37230   0.40989
     Eigenvalues ---    0.42403   0.42564   0.46412   0.46453   0.46466
     Eigenvalues ---    0.46497   0.55473
 RFO step:  Lambda=-1.04209356D-02 EMin= 2.36824114D-03
 Linear search not attempted -- first point.
 Iteration  1 RMS(Cart)=  0.03787859 RMS(Int)=  0.00264311
 Iteration  2 RMS(Cart)=  0.00251202 RMS(Int)=  0.00015904
 Iteration  3 RMS(Cart)=  0.00001636 RMS(Int)=  0.00015860
 Iteration  4 RMS(Cart)=  0.00000000 RMS(Int)=  0.00015860
 Variable       Old X    -DE/DX   Delta X   Delta X   Delta X     New X
                                 (Linear)    (Quad)   (Total)
    R1        2.63647  -0.00268   0.00000  -0.00576  -0.00578   2.63069
    R2        2.63584  -0.00287   0.00000  -0.00661  -0.00664   2.62920
    R3        2.07796  -0.01107   0.00000  -0.03183  -0.03183   2.04614
    R4        2.63562   0.00691   0.00000   0.01498   0.01499   2.65062
    R5        3.60938   0.01183   0.00000   0.06287   0.06287   3.67225
    R6        2.63697   0.00400   0.00000   0.00902   0.00904   2.64602
    R7        2.70231  -0.02321   0.00000  -0.05523  -0.05523   2.64708
    R8        2.63584   0.00400   0.00000   0.00855   0.00856   2.64440
    R9        2.91018  -0.01080   0.00000  -0.03654  -0.03654   2.87364
   R10        2.63643   0.00120   0.00000   0.00207   0.00205   2.63848
   R11        2.07825  -0.01081   0.00000  -0.03111  -0.03111   2.04714
   R12        3.60938   0.01157   0.00000   0.06148   0.06148   3.67086
   R13        2.02201   0.01845   0.00000   0.04821   0.04821   2.07022
   R14        2.02201   0.01539   0.00000   0.04020   0.04020   2.06221
   R15        2.02201   0.01644   0.00000   0.04295   0.04295   2.06496
   R16        1.81414   0.01876   0.00000   0.03319   0.03319   1.84732
    A1        2.09437  -0.00525   0.00000  -0.02397  -0.02400   2.07037
    A2        2.09435   0.00210   0.00000   0.00889   0.00891   2.10325
    A3        2.09447   0.00315   0.00000   0.01508   0.01509   2.10956
    A4        2.09455   0.00398   0.00000   0.01615   0.01614   2.11068
    A5        2.09406  -0.00301   0.00000  -0.01199  -0.01202   2.08204
    A6        2.09458  -0.00097   0.00000  -0.00418  -0.00422   2.09036
    A7        2.09429   0.00089   0.00000   0.00557   0.00551   2.09980
    A8        2.09462   0.01137   0.00000   0.04256   0.04240   2.13702
    A9        2.09427  -0.01225   0.00000  -0.04814  -0.04826   2.04601
   A10        2.09429  -0.00703   0.00000  -0.02544  -0.02538   2.06891
   A11        2.09407   0.00193   0.00000   0.00664   0.00660   2.10067
   A12        2.09483   0.00510   0.00000   0.01880   0.01877   2.11360
   A13        2.09448   0.00258   0.00000   0.01077   0.01079   2.10526
   A14        2.09459  -0.00237   0.00000  -0.01171  -0.01172   2.08287
   A15        2.09411  -0.00021   0.00000   0.00093   0.00092   2.09503
   A16        2.09440   0.00483   0.00000   0.01690   0.01688   2.11127
   A17        2.09453  -0.00327   0.00000  -0.01172  -0.01170   2.08283
   A18        2.09426  -0.00157   0.00000  -0.00519  -0.00518   2.08908
   A19        1.91063   0.00295   0.00000   0.01529   0.01521   1.92584
   A20        1.91063   0.00333   0.00000   0.02029   0.02014   1.93077
   A21        1.91063   0.00152   0.00000   0.01014   0.01001   1.92065
   A22        1.91063  -0.00363   0.00000  -0.02379  -0.02390   1.88674
   A23        1.91063  -0.00254   0.00000  -0.01645  -0.01651   1.89412
   A24        1.91063  -0.00162   0.00000  -0.00549  -0.00568   1.90496
   A25        1.91114   0.00244   0.00000   0.01431   0.01431   1.92545
    D1        0.00056   0.00030   0.00000   0.00958   0.00968   0.01025
    D2        3.14078  -0.00016   0.00000  -0.00512  -0.00487   3.13591
    D3       -3.14112   0.00020   0.00000   0.00646   0.00645  -3.13467
    D4       -0.00091  -0.00026   0.00000  -0.00823  -0.00810  -0.00901
    D5        0.00026  -0.00005   0.00000  -0.00124  -0.00132  -0.00106
    D6        3.14140  -0.00011   0.00000  -0.00335  -0.00344   3.13796
    D7       -3.14124   0.00005   0.00000   0.00187   0.00193  -3.13931
    D8       -0.00010  -0.00001   0.00000  -0.00024  -0.00019  -0.00029
    D9       -0.00099  -0.00028   0.00000  -0.00947  -0.00955  -0.01055
   D10        3.14093   0.00057   0.00000   0.01854   0.01917  -3.12309
   D11       -3.14120   0.00019   0.00000   0.00524   0.00507  -3.13613
   D12        0.00072   0.00104   0.00000   0.03325   0.03380   0.03451
   D13        0.00060  -0.00001   0.00000   0.00100   0.00086   0.00145
   D14       -3.14153  -0.00011   0.00000  -0.00327  -0.00343   3.13822
   D15       -3.14132  -0.00085   0.00000  -0.02698  -0.02639   3.11547
   D16       -0.00026  -0.00095   0.00000  -0.03126  -0.03068  -0.03094
   D17       -0.53360   0.00337   0.00000   0.14817   0.14823  -0.38537
   D18        2.60832   0.00421   0.00000   0.17617   0.17611   2.78443
   D19        0.00023   0.00026   0.00000   0.00732   0.00743   0.00765
   D20       -3.14158   0.00005   0.00000   0.00111   0.00112  -3.14046
   D21       -3.14083   0.00036   0.00000   0.01160   0.01175  -3.12908
   D22        0.00054   0.00015   0.00000   0.00539   0.00545   0.00599
   D23       -1.54637   0.00040   0.00000   0.02438   0.02443  -1.52194
   D24        0.54803  -0.00021   0.00000   0.01704   0.01707   0.56509
   D25        2.64242   0.00078   0.00000   0.02895   0.02907   2.67149
   D26        1.59469   0.00030   0.00000   0.02009   0.02001   1.61470
   D27       -2.59410  -0.00031   0.00000   0.01275   0.01265  -2.58145
   D28       -0.49970   0.00068   0.00000   0.02467   0.02465  -0.47505
   D29       -0.00066  -0.00023   0.00000  -0.00721  -0.00731  -0.00797
   D30        3.14138  -0.00017   0.00000  -0.00510  -0.00518   3.13620
   D31        3.14116  -0.00003   0.00000  -0.00100  -0.00096   3.14019
   D32        0.00001   0.00003   0.00000   0.00112   0.00117   0.00118
         Item               Value     Threshold  Converged?
 Maximum Force            0.023212     0.000450     NO 
 RMS     Force            0.006437     0.000300     NO 
 Maximum Displacement     0.222190     0.001800     NO 
 RMS     Displacement     0.038931     0.001200     NO 
 Predicted change in Energy=-5.680353D-03
 GradGradGradGradGradGradGradGradGradGradGradGradGradGradGradGradGradGrad

                          Input orientation:                          
 ---------------------------------------------------------------------
 Center     Atomic      Atomic             Coordinates (Angstroms)
 Number     Number       Type             X           Y           Z
 ---------------------------------------------------------------------
      1          6           0        1.605370   -0.338985    0.010191
      2          6           0        2.997368   -0.324729    0.019338
      3          6           0        3.706020    0.885734    0.022148
      4          6           0        3.020020    2.106239    0.003009
      5          6           0        1.620945    2.086568   -0.017019
      6          6           0        0.926501    0.875320   -0.008660
      7          1           0        1.065242   -1.277405    0.014531
      8          1           0        1.077091    3.023321   -0.033029
      9          6           0        3.787086    3.419240    0.010455
     10          1           0        4.003384    3.728110    1.039028
     11          1           0        4.735776    3.313207   -0.518341
     12          1           0        3.194643    4.201850   -0.469745
     13          8           0        5.105798    0.937030    0.009414
     14          1           0        5.479306    0.097871    0.343972
     15         35           0       -1.015933    0.879572   -0.027852
     16         35           0        3.965220   -2.009444    0.055300
 ---------------------------------------------------------------------
                    Distance matrix (angstroms):
                    1          2          3          4          5
     1  C    0.000000
     2  C    1.392102   0.000000
     3  C    2.431627   1.402646   0.000000
     4  C    2.824962   2.431129   1.400213   0.000000
     5  C    2.425755   2.776727   2.406464   1.399356   0.000000
     6  C    1.391314   2.393615   2.779709   2.428604   1.396225
     7  H    1.082769   2.154235   3.413639   3.907728   3.409708
     8  H    3.403828   3.860005   3.388744   2.148792   1.083300
     9  C    4.345589   3.826361   2.534830   1.520663   2.543410
    10  H    4.832208   4.298527   3.033409   2.161204   3.079920
    11  H    4.839142   4.067645   2.691682   2.161573   3.384987
    12  H    4.834802   4.557196   3.391178   2.155359   2.675052
    13  O    3.725750   2.457155   1.400775   2.391142   3.669650
    14  H    3.912753   2.538502   1.966937   3.193413   4.355706
    15  Br   2.890944   4.190365   4.722222   4.218363   2.900015
    16  Br   2.891602   1.943269   2.906946   4.223149   4.719975
                    6          7          8          9         10
     6  C    0.000000
     7  H    2.157315   0.000000
     8  H    2.153411   4.301004   0.000000
     9  C    3.828164   5.428345   2.739108   0.000000
    10  H    4.324728   5.893848   3.195187   1.095513   0.000000
    11  H    4.551225   5.901736   3.702099   1.091275   1.770294
    12  H    4.052514   5.898398   2.462453   1.092729   1.776200
    13  O    4.179791   4.607585   4.537056   2.810759   3.172624
    14  H    4.632149   4.635070   5.299045   3.742504   3.979960
    15  Br   1.942534   2.997605   2.996071   5.433266   5.869067
    16  Br   4.190438   2.991224   5.803258   5.431791   5.821400
                   11         12         13         14         15
    11  H    0.000000
    12  H    1.779646   0.000000
    13  O    2.462043   3.813286   0.000000
    14  H    3.410983   4.767018   0.977561   0.000000
    15  Br   6.264609   5.381613   6.122114   6.552667   0.000000
    16  Br   5.408644   6.280894   3.159863   2.610854   5.758925
                   16
    16  Br   0.000000
 Stoichiometry    C7H6Br2O
 Framework group  C1[X(C7H6Br2O)]
 Deg. of freedom    42
 Full point group                 C1      NOp   1
 Largest Abelian subgroup         C1      NOp   1
 Largest concise Abelian subgroup C1      NOp   1
                         Standard orientation:                         
 ---------------------------------------------------------------------
 Center     Atomic      Atomic             Coordinates (Angstroms)
 Number     Number       Type             X           Y           Z
 ---------------------------------------------------------------------
      1          6           0       -0.241257   -0.768911   -0.002080
      2          6           0        1.023408   -0.187090   -0.009376
      3          6           0        1.175623    1.207261   -0.003875
      4          6           0        0.050638    2.040929   -0.003626
      5          6           0       -1.218431    1.451312   -0.007177
      6          6           0       -1.357197    0.062011   -0.001686
      7          1           0       -0.350718   -1.846131    0.000062
      8          1           0       -2.097716    2.084082   -0.008100
      9          6           0        0.214337    3.552720    0.006757
     10          1           0        0.300581    3.919385    1.035478
     11          1           0        1.115714    3.845493   -0.534247
     12          1           0       -0.653100    4.026586   -0.459142
     13          8           0        2.431935    1.826144   -0.032800
     14          1           0        3.120544    1.211712    0.289560
     15         35           0       -3.131906   -0.727819    0.002287
     16         35           0        2.595520   -1.329315   -0.000425
 ---------------------------------------------------------------------
 Rotational constants (GHZ):           0.9357020           0.3395007           0.2495287
 Standard basis: 6-31G (6D, 7F)
 There are   132 symmetry adapted cartesian basis functions of A   symmetry.
 There are   132 symmetry adapted basis functions of A   symmetry.
   132 basis functions,   354 primitive gaussians,   132 cartesian basis functions
    63 alpha electrons       63 beta electrons
       nuclear repulsion energy      1019.6853806954 Hartrees.
 NAtoms=   16 NActive=   16 NUniq=   16 SFac= 1.00D+00 NAtFMM=   60 NAOKFM=F Big=F
 Integral buffers will be    131072 words long.
 Raffenetti 2 integral format.
 Two-electron integral symmetry is turned on.
 ------------------------------------------------------------------------------
 Polarizable Continuum Model (PCM)
 =================================
 Model                : PCM.
 Atomic radii         : SMD-Coulomb.
 Polarization charges : Total charges.
 Charge compensation  : None.
 Solution method      : On-the-fly selection.
 Cavity type          : VdW (van der Waals Surface) (Alpha=1.000).
 Cavity algorithm     : GePol (No added spheres)
                        Default sphere list used, NSphG=   16.
                        Lebedev-Laikov grids with approx.  5.0 points / Ang**2.
                        Smoothing algorithm: York/Karplus (Gamma=1.0000).
                        Polarization charges: spherical gaussians, with
                                              point-specific exponents (IZeta= 3).
                        Self-potential: point-specific (ISelfS= 7).
                        Self-field    : sphere-specific E.n sum rule (ISelfD= 2).
 1st derivatives      : Analytical E(r).r(x)/FMM algorithm (CHGder, D1EAlg=3).
                        Cavity 1st derivative terms included.
 Solvent              : Toluene, Eps=   2.374100 Eps(inf)=   2.238315
 ------------------------------------------------------------------------------
 Spheres list:
 ISph  on   Nord     Re0    Alpha      Xe            Ye            Ze
    1   C      1    1.8500  1.000     -0.241257     -0.768911     -0.002080
    2   C      2    1.8500  1.000      1.023408     -0.187090     -0.009376
    3   C      3    1.8500  1.000      1.175623      1.207261     -0.003875
    4   C      4    1.8500  1.000      0.050638      2.040929     -0.003626
    5   C      5    1.8500  1.000     -1.218431      1.451312     -0.007177
    6   C      6    1.8500  1.000     -1.357197      0.062011     -0.001686
    7   H      7    1.2000  1.000     -0.350718     -1.846131      0.000062
    8   H      8    1.2000  1.000     -2.097716      2.084082     -0.008100
    9   C      9    1.8500  1.000      0.214337      3.552720      0.006757
   10   H     10    1.2000  1.000      0.300581      3.919385      1.035478
   11   H     11    1.2000  1.000      1.115714      3.845493     -0.534247
   12   H     12    1.2000  1.000     -0.653100      4.026586     -0.459142
   13   O     13    2.2940  1.000      2.431935      1.826144     -0.032800
   14   H     14    1.2000  1.000      3.120544      1.211712      0.289560
   15  Br     15    3.0600  1.000     -3.131906     -0.727819      0.002287
   16  Br     16    3.0600  1.000      2.595520     -1.329315     -0.000425
 ------------------------------------------------------------------------------
 ------------------------------------------------------------------------------
 Atomic radii for non-electrostatic terms: SMD-CDS.
 ------------------------------------------------------------------------------
 Nuclear repulsion after PCM non-electrostatic terms =     1019.6752439421 Hartrees.
 One-electron integrals computed using PRISM.
 NBasis=   132 RedAO= T EigKep=  5.82D-04  NBF=   132
 NBsUse=   132 1.00D-06 EigRej= -1.00D+00 NBFU=   132
 Initial guess from the checkpoint file:  "BrBrbz.chk"
 B after Tr=     0.000000    0.000000   -0.000000
         Rot=    1.000000   -0.000069   -0.000065   -0.000811 Ang=  -0.09 deg.
 ExpMin= 1.43D-01 ExpMax= 5.74D+05 ExpMxC= 5.74D+03 IAcc=3 IRadAn=         5 AccDes= 0.00D+00
 Harris functional with IExCor=  402 and IRadAn=       5 diagonalized for initial guess.
 HarFok:  IExCor=  402 AccDes= 0.00D+00 IRadAn=         5 IDoV= 1 UseB2=F ITyADJ=14
 ICtDFT=  3500011 ScaDFX=  1.000000  1.000000  1.000000  1.000000
 FoFCou: FMM=F IPFlag=           0 FMFlag=      100000 FMFlg1=           0
         NFxFlg=           0 DoJE=T BraDBF=F KetDBF=T FulRan=T
         wScrn=  0.000000 ICntrl=       500 IOpCl=  0 I1Cent=   200000004 NGrid=           0
         NMat0=    1 NMatS0=      1 NMatT0=    0 NMatD0=    1 NMtDS0=    0 NMtDT0=    0
 Petite list used in FoFCou.
 Requested convergence on RMS density matrix=1.00D-08 within 128 cycles.
 Requested convergence on MAX density matrix=1.00D-06.
 Requested convergence on             energy=1.00D-06.
 No special actions if energy rises.
 Inv3:  Mode=1 IEnd=     9451875.
 Iteration    1 A*A^-1 deviation from unit magnitude is 3.11D-15 for   1738.
 Iteration    1 A*A^-1 deviation from orthogonality  is 1.55D-15 for    344     66.
 Iteration    1 A^-1*A deviation from unit magnitude is 3.22D-15 for   1765.
 Iteration    1 A^-1*A deviation from orthogonality  is 2.24D-15 for   1038    575.
 Error on total polarization charges =  0.00806
 SCF Done:  E(RB3LYP) =  -5488.65431813     A.U. after   11 cycles
            NFock= 11  Conv=0.74D-08     -V/T= 2.0043
 SMD-CDS (non-electrostatic) energy       (kcal/mol) =      -6.36
 (included in total energy above)
 D1PCM: PCM CHGder 1st derivatives, ID1Alg=3 FixD1E=F DoIter=F DoCFld=F I1PDM=0.
 Calling FoFJK, ICntrl=      2127 FMM=F ISym2X=0 I1Cent= 0 IOpClX= 0 NMat=1 NMatS=1 NMatT=0.
 ***** Axes restored to original set *****
 -------------------------------------------------------------------
 Center     Atomic                   Forces (Hartrees/Bohr)
 Number     Number              X              Y              Z
 -------------------------------------------------------------------
      1        6          -0.002700354   -0.003769331   -0.000045978
      2        6          -0.003797216    0.008078802    0.001635844
      3        6           0.013761189   -0.009067278   -0.001681179
      4        6           0.000775917    0.008822404   -0.001598369
      5        6          -0.004142343   -0.001739349   -0.000017571
      6        6           0.006754459    0.002460415   -0.000073121
      7        1           0.000408337    0.000288177    0.000026203
      8        1          -0.000161521    0.000242019   -0.000166556
      9        6          -0.004943182   -0.008314460   -0.001402641
     10        1           0.001397064    0.001299574    0.000717939
     11        1           0.000701870    0.001194778    0.000126783
     12        1           0.000187808    0.001596498    0.000594841
     13        8          -0.011070157    0.002079636    0.005058572
     14        1           0.001927514   -0.003210387   -0.003284466
     15       35          -0.000966659    0.000032188   -0.000018182
     16       35           0.001867276    0.000006313    0.000127881
 -------------------------------------------------------------------
 Cartesian Forces:  Max     0.013761189 RMS     0.004127577

 GradGradGradGradGradGradGradGradGradGradGradGradGradGradGradGradGradGrad
 Berny optimization.
 Using GEDIIS/GDIIS optimizer.
 FormGI is forming the generalized inverse of G from B-inverse, IUseBI=4.
 Internal  Forces:  Max     0.009190815 RMS     0.001989274
 Search for a local minimum.
 Step number   2 out of a maximum of   83
 All quantities printed in internal units (Hartrees-Bohrs-Radians)
 Mixed Optimization -- RFO/linear search
 Update second derivatives using D2CorX and points    1    2
 DE= -6.51D-03 DEPred=-5.68D-03 R= 1.15D+00
 TightC=F SS=  1.41D+00  RLast= 3.00D-01 DXNew= 5.0454D-01 9.0093D-01
 Trust test= 1.15D+00 RLast= 3.00D-01 DXMaxT set to 5.05D-01
 ITU=  1  0
 Use linear search instead of GDIIS.
     Eigenvalues ---    0.00235   0.01111   0.01368   0.02021   0.02154
     Eigenvalues ---    0.02154   0.02155   0.02155   0.02156   0.02157
     Eigenvalues ---    0.02168   0.07027   0.07098   0.15214   0.16000
     Eigenvalues ---    0.16000   0.16000   0.16000   0.16015   0.17770
     Eigenvalues ---    0.17830   0.21951   0.23537   0.24736   0.24997
     Eigenvalues ---    0.25000   0.25000   0.26741   0.27773   0.33701
     Eigenvalues ---    0.34177   0.36517   0.37230   0.37270   0.40248
     Eigenvalues ---    0.42450   0.42530   0.46399   0.46455   0.46472
     Eigenvalues ---    0.48901   0.55991
 RFO step:  Lambda=-3.01184354D-03 EMin= 2.35337491D-03
 Quartic linear search produced a step of  0.32723.
 Iteration  1 RMS(Cart)=  0.04816517 RMS(Int)=  0.01777052
 Iteration  2 RMS(Cart)=  0.01883614 RMS(Int)=  0.00102749
 Iteration  3 RMS(Cart)=  0.00103919 RMS(Int)=  0.00006310
 Iteration  4 RMS(Cart)=  0.00000219 RMS(Int)=  0.00006308
 Iteration  5 RMS(Cart)=  0.00000000 RMS(Int)=  0.00006308
 Variable       Old X    -DE/DX   Delta X   Delta X   Delta X     New X
                                 (Linear)    (Quad)   (Total)
    R1        2.63069  -0.00058  -0.00189  -0.00126  -0.00314   2.62755
    R2        2.62920  -0.00045  -0.00217  -0.00079  -0.00296   2.62624
    R3        2.04614  -0.00045  -0.01041   0.00213  -0.00828   2.03786
    R4        2.65062  -0.00426   0.00491  -0.01354  -0.00862   2.64199
    R5        3.67225   0.00093   0.02057  -0.00145   0.01912   3.69137
    R6        2.64602   0.00556   0.00296   0.01463   0.01759   2.66361
    R7        2.64708  -0.00919  -0.01807  -0.02215  -0.04022   2.60686
    R8        2.64440   0.00142   0.00280   0.00323   0.00602   2.65042
    R9        2.87364  -0.00499  -0.01196  -0.01788  -0.02983   2.84380
   R10        2.63848  -0.00264   0.00067  -0.00754  -0.00688   2.63160
   R11        2.04714   0.00029  -0.01018   0.00488  -0.00530   2.04184
   R12        3.67086   0.00097   0.02012  -0.00100   0.01912   3.68998
   R13        2.07022   0.00131   0.01578  -0.00129   0.01448   2.08470
   R14        2.06221   0.00043   0.01316  -0.00334   0.00981   2.07202
   R15        2.06496   0.00079   0.01406  -0.00246   0.01159   2.07655
   R16        1.84732   0.00237   0.01086   0.00157   0.01243   1.85975
    A1        2.07037  -0.00270  -0.00785  -0.01361  -0.02145   2.04891
    A2        2.10325   0.00113   0.00291   0.00547   0.00838   2.11163
    A3        2.10956   0.00157   0.00494   0.00815   0.01308   2.12264
    A4        2.11068   0.00363   0.00528   0.01628   0.02158   2.13226
    A5        2.08204   0.00117  -0.00393   0.00759   0.00363   2.08567
    A6        2.09036  -0.00481  -0.00138  -0.02389  -0.02530   2.06506
    A7        2.09980  -0.00189   0.00180  -0.00922  -0.00745   2.09235
    A8        2.13702   0.00036   0.01388  -0.00375   0.01005   2.14707
    A9        2.04601   0.00153  -0.01579   0.01347  -0.00238   2.04363
   A10        2.06891  -0.00097  -0.00831  -0.00017  -0.00849   2.06042
   A11        2.10067   0.00070   0.00216   0.00194   0.00410   2.10477
   A12        2.11360   0.00027   0.00614  -0.00178   0.00435   2.11795
   A13        2.10526  -0.00063   0.00353  -0.00388  -0.00037   2.10489
   A14        2.08287   0.00034  -0.00384   0.00297  -0.00087   2.08201
   A15        2.09503   0.00029   0.00030   0.00096   0.00126   2.09629
   A16        2.11127   0.00255   0.00552   0.01071   0.01623   2.12750
   A17        2.08283  -0.00123  -0.00383  -0.00471  -0.00854   2.07429
   A18        2.08908  -0.00132  -0.00169  -0.00599  -0.00768   2.08140
   A19        1.92584   0.00142   0.00498   0.00801   0.01289   1.93873
   A20        1.93077   0.00133   0.00659   0.00830   0.01473   1.94550
   A21        1.92065   0.00133   0.00328   0.01010   0.01322   1.93386
   A22        1.88674  -0.00165  -0.00782  -0.01169  -0.01961   1.86713
   A23        1.89412  -0.00151  -0.00540  -0.01059  -0.01608   1.87804
   A24        1.90496  -0.00104  -0.00186  -0.00500  -0.00707   1.89789
   A25        1.92545   0.00201   0.00468   0.01405   0.01873   1.94418
    D1        0.01025  -0.00005   0.00317  -0.00552  -0.00233   0.00791
    D2        3.13591  -0.00016  -0.00159  -0.00637  -0.00793   3.12798
    D3       -3.13467   0.00001   0.00211  -0.00172   0.00037  -3.13430
    D4       -0.00901  -0.00010  -0.00265  -0.00257  -0.00522  -0.01423
    D5       -0.00106  -0.00004  -0.00043  -0.00204  -0.00252  -0.00358
    D6        3.13796   0.00002  -0.00113   0.00149   0.00034   3.13830
    D7       -3.13931  -0.00010   0.00063  -0.00585  -0.00524   3.13863
    D8       -0.00029  -0.00004  -0.00006  -0.00232  -0.00238  -0.00267
    D9       -0.01055   0.00011  -0.00313   0.00833   0.00518  -0.00536
   D10       -3.12309  -0.00016   0.00627  -0.01277  -0.00629  -3.12938
   D11       -3.13613   0.00017   0.00166   0.00890   0.01046  -3.12567
   D12        0.03451  -0.00010   0.01106  -0.01220  -0.00101   0.03350
   D13        0.00145  -0.00008   0.00028  -0.00340  -0.00313  -0.00168
   D14        3.13822  -0.00013  -0.00112  -0.00653  -0.00765   3.13057
   D15        3.11547   0.00016  -0.00863   0.01637   0.00788   3.12336
   D16       -0.03094   0.00011  -0.01004   0.01324   0.00337  -0.02758
   D17       -0.38537   0.00378   0.04851   0.25999   0.30853  -0.07683
   D18        2.78443   0.00357   0.05763   0.23986   0.29745   3.08188
   D19        0.00765  -0.00005   0.00243  -0.00427  -0.00177   0.00588
   D20       -3.14046   0.00007   0.00037   0.00321   0.00360  -3.13686
   D21       -3.12908   0.00000   0.00385  -0.00113   0.00278  -3.12630
   D22        0.00599   0.00013   0.00178   0.00635   0.00815   0.01415
   D23       -1.52194   0.00048   0.00799   0.08522   0.09324  -1.42870
   D24        0.56509   0.00019   0.00558   0.08113   0.08669   0.65178
   D25        2.67149   0.00062   0.00951   0.08687   0.09645   2.76794
   D26        1.61470   0.00043   0.00655   0.08202   0.08854   1.70324
   D27       -2.58145   0.00013   0.00414   0.07792   0.08199  -2.49946
   D28       -0.47505   0.00056   0.00807   0.08366   0.09175  -0.38330
   D29       -0.00797   0.00010  -0.00239   0.00709   0.00467  -0.00329
   D30        3.13620   0.00005  -0.00170   0.00354   0.00180   3.13801
   D31        3.14019  -0.00002  -0.00032  -0.00045  -0.00074   3.13946
   D32        0.00118  -0.00007   0.00038  -0.00400  -0.00361  -0.00243
         Item               Value     Threshold  Converged?
 Maximum Force            0.009191     0.000450     NO 
 RMS     Force            0.001989     0.000300     NO 
 Maximum Displacement     0.344674     0.001800     NO 
 RMS     Displacement     0.060997     0.001200     NO 
 Predicted change in Energy=-2.205470D-03
 GradGradGradGradGradGradGradGradGradGradGradGradGradGradGradGradGradGrad

                          Input orientation:                          
 ---------------------------------------------------------------------
 Center     Atomic      Atomic             Coordinates (Angstroms)
 Number     Number       Type             X           Y           Z
 ---------------------------------------------------------------------
      1          6           0        1.601417   -0.344165    0.020167
      2          6           0        2.991055   -0.313464    0.055974
      3          6           0        3.709398    0.885959    0.054652
      4          6           0        3.022434    2.115917    0.009530
      5          6           0        1.620890    2.087392   -0.035083
      6          6           0        0.935908    0.874944   -0.027427
      7          1           0        1.066356   -1.280411    0.028618
      8          1           0        1.074203    3.018543   -0.074563
      9          6           0        3.779057    3.416695    0.021691
     10          1           0        4.063330    3.700800    1.049052
     11          1           0        4.706253    3.347078   -0.559431
     12          1           0        3.164608    4.229435   -0.389903
     13          8           0        5.087797    0.936646    0.075693
     14          1           0        5.478809    0.037612    0.161579
     15         35           0       -1.015898    0.881225   -0.084571
     16         35           0        3.988220   -1.990707    0.146761
 ---------------------------------------------------------------------
                    Distance matrix (angstroms):
                    1          2          3          4          5
     1  C    0.000000
     2  C    1.390438   0.000000
     3  C    2.440897   1.398082   0.000000
     4  C    2.841021   2.430027   1.409522   0.000000
     5  C    2.432262   2.765819   2.411091   1.402544   0.000000
     6  C    1.389746   2.375479   2.774726   2.427956   1.392584
     7  H    1.078387   2.154113   3.417529   3.919394   3.413746
     8  H    3.405104   3.846249   3.392472   2.148815   1.080494
     9  C    4.345824   3.812638   2.531910   1.504876   2.535341
    10  H    4.845757   4.272036   3.006232   2.162389   3.121530
    11  H    4.858108   4.089034   2.725423   2.162111   3.373606
    12  H    4.850726   4.568026   3.416616   2.155625   2.664078
    13  O    3.714621   2.441207   1.379492   2.379240   3.654578
    14  H    3.898707   2.514622   1.965182   3.221218   4.373078
    15  Br   2.891866   4.183624   4.727349   4.223913   2.899989
    16  Br   2.902406   1.953389   2.891614   4.220893   4.718921
                    6          7          8          9         10
     6  C    0.000000
     7  H    2.160026   0.000000
     8  H    2.148573   4.300199   0.000000
     9  C    3.813975   5.424168   2.735694   0.000000
    10  H    4.350292   5.902169   3.265404   1.103176   0.000000
    11  H    4.539822   5.916782   3.678970   1.096468   1.767961
    12  H    4.043650   5.910687   2.436286   1.098864   1.777005
    13  O    4.153629   4.592336   4.523915   2.804704   3.104434
    14  H    4.623289   4.607017   5.323745   3.785093   4.026181
    15  Br   1.952652   3.003541   2.989440   5.425080   5.918924
    16  Br   4.190336   3.009281   5.799403   5.412892   5.763075
                   11         12         13         14         15
    11  H    0.000000
    12  H    1.784367   0.000000
    13  O    2.521734   3.841601   0.000000
    14  H    3.474085   4.819859   0.984138   0.000000
    15  Br   6.248915   5.364734   6.106051   6.553891   0.000000
    16  Br   5.431964   6.297342   3.127861   2.517172   5.774315
                   16
    16  Br   0.000000
 Stoichiometry    C7H6Br2O
 Framework group  C1[X(C7H6Br2O)]
 Deg. of freedom    42
 Full point group                 C1      NOp   1
 Largest Abelian subgroup         C1      NOp   1
 Largest concise Abelian subgroup C1      NOp   1
                         Standard orientation:                         
 ---------------------------------------------------------------------
 Center     Atomic      Atomic             Coordinates (Angstroms)
 Number     Number       Type             X           Y           Z
 ---------------------------------------------------------------------
      1          6           0       -0.246856   -0.782251   -0.006229
      2          6           0        1.010755   -0.189219   -0.013098
      3          6           0        1.179325    1.198653   -0.007878
      4          6           0        0.050798    2.043131   -0.001805
      5          6           0       -1.218904    1.447325   -0.003310
      6          6           0       -1.351483    0.061067   -0.003558
      7          1           0       -0.354724   -1.855227   -0.003692
      8          1           0       -2.097768    2.075868   -0.003198
      9          6           0        0.213662    3.539035    0.018141
     10          1           0        0.397191    3.904575    1.042687
     11          1           0        1.066165    3.858083   -0.593160
     12          1           0       -0.693238    4.035333   -0.354315
     13          8           0        2.417990    1.805508   -0.028668
     14          1           0        3.143459    1.142538    0.023225
     15         35           0       -3.138180   -0.726681    0.000437
     16         35           0        2.605929   -1.316510    0.005969
 ---------------------------------------------------------------------
 Rotational constants (GHZ):           0.9450217           0.3381345           0.2494235
 Standard basis: 6-31G (6D, 7F)
 There are   132 symmetry adapted cartesian basis functions of A   symmetry.
 There are   132 symmetry adapted basis functions of A   symmetry.
   132 basis functions,   354 primitive gaussians,   132 cartesian basis functions
    63 alpha electrons       63 beta electrons
       nuclear repulsion energy      1020.3093472325 Hartrees.
 NAtoms=   16 NActive=   16 NUniq=   16 SFac= 1.00D+00 NAtFMM=   60 NAOKFM=F Big=F
 Integral buffers will be    131072 words long.
 Raffenetti 2 integral format.
 Two-electron integral symmetry is turned on.
 ------------------------------------------------------------------------------
 Polarizable Continuum Model (PCM)
 =================================
 Model                : PCM.
 Atomic radii         : SMD-Coulomb.
 Polarization charges : Total charges.
 Charge compensation  : None.
 Solution method      : On-the-fly selection.
 Cavity type          : VdW (van der Waals Surface) (Alpha=1.000).
 Cavity algorithm     : GePol (No added spheres)
                        Default sphere list used, NSphG=   16.
                        Lebedev-Laikov grids with approx.  5.0 points / Ang**2.
                        Smoothing algorithm: York/Karplus (Gamma=1.0000).
                        Polarization charges: spherical gaussians, with
                                              point-specific exponents (IZeta= 3).
                        Self-potential: point-specific (ISelfS= 7).
                        Self-field    : sphere-specific E.n sum rule (ISelfD= 2).
 1st derivatives      : Analytical E(r).r(x)/FMM algorithm (CHGder, D1EAlg=3).
                        Cavity 1st derivative terms included.
 Solvent              : Toluene, Eps=   2.374100 Eps(inf)=   2.238315
 ------------------------------------------------------------------------------
 Spheres list:
 ISph  on   Nord     Re0    Alpha      Xe            Ye            Ze
    1   C      1    1.8500  1.000     -0.246856     -0.782251     -0.006229
    2   C      2    1.8500  1.000      1.010755     -0.189219     -0.013098
    3   C      3    1.8500  1.000      1.179325      1.198653     -0.007878
    4   C      4    1.8500  1.000      0.050798      2.043131     -0.001805
    5   C      5    1.8500  1.000     -1.218904      1.447325     -0.003310
    6   C      6    1.8500  1.000     -1.351483      0.061067     -0.003558
    7   H      7    1.2000  1.000     -0.354724     -1.855227     -0.003692
    8   H      8    1.2000  1.000     -2.097768      2.075868     -0.003198
    9   C      9    1.8500  1.000      0.213662      3.539035      0.018141
   10   H     10    1.2000  1.000      0.397191      3.904575      1.042687
   11   H     11    1.2000  1.000      1.066165      3.858083     -0.593160
   12   H     12    1.2000  1.000     -0.693238      4.035333     -0.354315
   13   O     13    2.2940  1.000      2.417990      1.805508     -0.028668
   14   H     14    1.2000  1.000      3.143459      1.142538      0.023225
   15  Br     15    3.0600  1.000     -3.138180     -0.726681      0.000437
   16  Br     16    3.0600  1.000      2.605929     -1.316510      0.005969
 ------------------------------------------------------------------------------
 ------------------------------------------------------------------------------
 Atomic radii for non-electrostatic terms: SMD-CDS.
 ------------------------------------------------------------------------------
 Nuclear repulsion after PCM non-electrostatic terms =     1020.2991115403 Hartrees.
 One-electron integrals computed using PRISM.
 NBasis=   132 RedAO= T EigKep=  5.84D-04  NBF=   132
 NBsUse=   132 1.00D-06 EigRej= -1.00D+00 NBFU=   132
 Initial guess from the checkpoint file:  "BrBrbz.chk"
 B after Tr=    -0.000000   -0.000000   -0.000000
         Rot=    1.000000   -0.000106   -0.000225   -0.000427 Ang=  -0.06 deg.
 ExpMin= 1.43D-01 ExpMax= 5.74D+05 ExpMxC= 5.74D+03 IAcc=3 IRadAn=         5 AccDes= 0.00D+00
 Harris functional with IExCor=  402 and IRadAn=       5 diagonalized for initial guess.
 HarFok:  IExCor=  402 AccDes= 0.00D+00 IRadAn=         5 IDoV= 1 UseB2=F ITyADJ=14
 ICtDFT=  3500011 ScaDFX=  1.000000  1.000000  1.000000  1.000000
 FoFCou: FMM=F IPFlag=           0 FMFlag=      100000 FMFlg1=           0
         NFxFlg=           0 DoJE=T BraDBF=F KetDBF=T FulRan=T
         wScrn=  0.000000 ICntrl=       500 IOpCl=  0 I1Cent=   200000004 NGrid=           0
         NMat0=    1 NMatS0=      1 NMatT0=    0 NMatD0=    1 NMtDS0=    0 NMtDT0=    0
 Petite list used in FoFCou.
 Requested convergence on RMS density matrix=1.00D-08 within 128 cycles.
 Requested convergence on MAX density matrix=1.00D-06.
 Requested convergence on             energy=1.00D-06.
 No special actions if energy rises.
 Inv3:  Mode=1 IEnd=     9430587.
 Iteration    1 A*A^-1 deviation from unit magnitude is 4.33D-15 for   1772.
 Iteration    1 A*A^-1 deviation from orthogonality  is 1.49D-15 for   1771   1703.
 Iteration    1 A^-1*A deviation from unit magnitude is 3.89D-15 for   1772.
 Iteration    1 A^-1*A deviation from orthogonality  is 1.82D-15 for   1036    576.
 Error on total polarization charges =  0.00822
 SCF Done:  E(RB3LYP) =  -5488.65655759     A.U. after   11 cycles
            NFock= 11  Conv=0.98D-08     -V/T= 2.0043
 SMD-CDS (non-electrostatic) energy       (kcal/mol) =      -6.42
 (included in total energy above)
 D1PCM: PCM CHGder 1st derivatives, ID1Alg=3 FixD1E=F DoIter=F DoCFld=F I1PDM=0.
 Calling FoFJK, ICntrl=      2127 FMM=F ISym2X=0 I1Cent= 0 IOpClX= 0 NMat=1 NMatS=1 NMatT=0.
 ***** Axes restored to original set *****
 -------------------------------------------------------------------
 Center     Atomic                   Forces (Hartrees/Bohr)
 Number     Number              X              Y              Z
 -------------------------------------------------------------------
      1        6           0.000931974    0.002056458   -0.000188609
      2        6          -0.000575372    0.000362704    0.001771217
      3        6           0.001704983   -0.000678365   -0.001557417
      4        6          -0.003632800   -0.001553484   -0.000579238
      5        6           0.002317854   -0.001546906    0.000007101
      6        6          -0.001772898    0.000038959   -0.000020982
      7        1          -0.001204011   -0.001807612   -0.000020386
      8        1          -0.001065243    0.001784792   -0.000112521
      9        6           0.001292023    0.003531140    0.000539413
     10        1          -0.000181472   -0.001038305   -0.002805811
     11        1          -0.001871439    0.000224962    0.000792158
     12        1           0.001709832   -0.002148029    0.001370567
     13        8           0.002886513   -0.002067947    0.002576558
     14        1          -0.001978994    0.002795715   -0.001253508
     15       35           0.000984920    0.000102145   -0.000006151
     16       35           0.000454129   -0.000056227   -0.000512391
 -------------------------------------------------------------------
 Cartesian Forces:  Max     0.003632800 RMS     0.001590631

 GradGradGradGradGradGradGradGradGradGradGradGradGradGradGradGradGradGrad
 Berny optimization.
 Using GEDIIS/GDIIS optimizer.
 FormGI is forming the generalized inverse of G from B-inverse, IUseBI=4.
 Internal  Forces:  Max     0.003450991 RMS     0.000922452
 Search for a local minimum.
 Step number   3 out of a maximum of   83
 All quantities printed in internal units (Hartrees-Bohrs-Radians)
 Mixed Optimization -- En-DIIS/RFO-DIIS
 Update second derivatives using D2CorX and points    2    3
 DE= -2.24D-03 DEPred=-2.21D-03 R= 1.02D+00
 TightC=F SS=  1.41D+00  RLast= 4.91D-01 DXNew= 8.4853D-01 1.4735D+00
 Trust test= 1.02D+00 RLast= 4.91D-01 DXMaxT set to 8.49D-01
 ITU=  1  1  0
 Use linear search instead of GDIIS.
     Eigenvalues ---    0.00225   0.01077   0.01362   0.02017   0.02154
     Eigenvalues ---    0.02154   0.02155   0.02156   0.02156   0.02159
     Eigenvalues ---    0.02209   0.06850   0.06961   0.15441   0.16000
     Eigenvalues ---    0.16000   0.16000   0.16009   0.16121   0.17750
     Eigenvalues ---    0.17900   0.22275   0.23536   0.24629   0.24998
     Eigenvalues ---    0.25000   0.25118   0.26833   0.28284   0.33719
     Eigenvalues ---    0.34244   0.37205   0.37248   0.38558   0.39914
     Eigenvalues ---    0.42415   0.42649   0.46381   0.46454   0.46494
     Eigenvalues ---    0.48492   0.56535
 RFO step:  Lambda=-5.69208141D-04 EMin= 2.24714111D-03
 Quartic linear search produced a step of  0.10838.
 Iteration  1 RMS(Cart)=  0.05013466 RMS(Int)=  0.00277710
 Iteration  2 RMS(Cart)=  0.00290091 RMS(Int)=  0.00002830
 Iteration  3 RMS(Cart)=  0.00000700 RMS(Int)=  0.00002775
 Iteration  4 RMS(Cart)=  0.00000000 RMS(Int)=  0.00002775
 Variable       Old X    -DE/DX   Delta X   Delta X   Delta X     New X
                                 (Linear)    (Quad)   (Total)
    R1        2.62755   0.00090  -0.00034   0.00210   0.00177   2.62932
    R2        2.62624   0.00027  -0.00032   0.00049   0.00016   2.62640
    R3        2.03786   0.00217  -0.00090   0.00561   0.00472   2.04257
    R4        2.64199   0.00008  -0.00093   0.00182   0.00091   2.64290
    R5        3.69137   0.00026   0.00207   0.00421   0.00629   3.69766
    R6        2.66361   0.00030   0.00191  -0.00007   0.00184   2.66545
    R7        2.60686   0.00095  -0.00436   0.00207  -0.00229   2.60457
    R8        2.65042  -0.00110   0.00065  -0.00260  -0.00196   2.64847
    R9        2.84380   0.00097  -0.00323   0.00362   0.00039   2.84419
   R10        2.63160  -0.00007  -0.00075   0.00041  -0.00036   2.63125
   R11        2.04184   0.00208  -0.00057   0.00516   0.00459   2.04642
   R12        3.68998  -0.00098   0.00207  -0.00348  -0.00141   3.68857
   R13        2.08470  -0.00293   0.00157  -0.00662  -0.00505   2.07965
   R14        2.07202  -0.00202   0.00106  -0.00411  -0.00304   2.06898
   R15        2.07655  -0.00306   0.00126  -0.00711  -0.00586   2.07070
   R16        1.85975  -0.00345   0.00135  -0.00564  -0.00429   1.85546
    A1        2.04891   0.00025  -0.00233   0.00163  -0.00068   2.04824
    A2        2.11163   0.00002   0.00091   0.00019   0.00109   2.11272
    A3        2.12264  -0.00028   0.00142  -0.00182  -0.00041   2.12223
    A4        2.13226   0.00017   0.00234   0.00055   0.00286   2.13513
    A5        2.08567   0.00057   0.00039   0.00144   0.00174   2.08741
    A6        2.06506  -0.00074  -0.00274  -0.00158  -0.00441   2.06065
    A7        2.09235  -0.00120  -0.00081  -0.00423  -0.00507   2.08728
    A8        2.14707   0.00083   0.00109   0.00570   0.00669   2.15376
    A9        2.04363   0.00038  -0.00026  -0.00115  -0.00151   2.04213
   A10        2.06042   0.00130  -0.00092   0.00433   0.00343   2.06385
   A11        2.10477  -0.00162   0.00044  -0.00679  -0.00636   2.09841
   A12        2.11795   0.00032   0.00047   0.00245   0.00291   2.12086
   A13        2.10489  -0.00001  -0.00004   0.00026   0.00020   2.10509
   A14        2.08201   0.00002  -0.00009  -0.00034  -0.00043   2.08157
   A15        2.09629  -0.00001   0.00014   0.00009   0.00023   2.09652
   A16        2.12750  -0.00051   0.00176  -0.00246  -0.00071   2.12678
   A17        2.07429   0.00045  -0.00093   0.00189   0.00096   2.07525
   A18        2.08140   0.00007  -0.00083   0.00057  -0.00026   2.08114
   A19        1.93873   0.00006   0.00140   0.00057   0.00196   1.94069
   A20        1.94550  -0.00012   0.00160  -0.00140   0.00018   1.94568
   A21        1.93386   0.00020   0.00143   0.00160   0.00302   1.93688
   A22        1.86713  -0.00013  -0.00212  -0.00206  -0.00419   1.86294
   A23        1.87804   0.00007  -0.00174   0.00204   0.00028   1.87832
   A24        1.89789  -0.00009  -0.00077  -0.00078  -0.00156   1.89633
   A25        1.94418  -0.00127   0.00203  -0.00912  -0.00709   1.93708
    D1        0.00791  -0.00020  -0.00025  -0.00907  -0.00934  -0.00143
    D2        3.12798   0.00027  -0.00086   0.01366   0.01281   3.14079
    D3       -3.13430  -0.00019   0.00004  -0.00928  -0.00926   3.13963
    D4       -0.01423   0.00028  -0.00057   0.01344   0.01289  -0.00134
    D5       -0.00358   0.00011  -0.00027   0.00551   0.00524   0.00166
    D6        3.13830   0.00003   0.00004   0.00133   0.00137   3.13967
    D7        3.13863   0.00010  -0.00057   0.00573   0.00516  -3.13939
    D8       -0.00267   0.00003  -0.00026   0.00155   0.00128  -0.00138
    D9       -0.00536   0.00014   0.00056   0.00570   0.00626   0.00090
   D10       -3.12938  -0.00035  -0.00068  -0.01586  -0.01659   3.13722
   D11       -3.12567  -0.00034   0.00113  -0.01680  -0.01564  -3.14131
   D12        0.03350  -0.00083  -0.00011  -0.03837  -0.03848  -0.00498
   D13       -0.00168   0.00003  -0.00034   0.00146   0.00115  -0.00053
   D14        3.13057  -0.00001  -0.00083  -0.00104  -0.00183   3.12874
   D15        3.12336   0.00049   0.00085   0.02184   0.02264  -3.13719
   D16       -0.02758   0.00046   0.00036   0.01934   0.01966  -0.00792
   D17       -0.07683   0.00107   0.03344   0.05775   0.09123   0.01440
   D18        3.08188   0.00061   0.03224   0.03678   0.06898  -3.13233
   D19        0.00588  -0.00011  -0.00019  -0.00490  -0.00511   0.00077
[...]
     6          0.34619166         -0.60208059          7.17033379
     6         -0.37888702          1.91493791          6.67778154
     6         -0.60196262          2.68920673          4.15872704
     6         -0.11682271          1.00512313          2.19243280
     1          0.97403644         -2.78147991          1.11769201
     1         -1.15713347          4.61629417          3.74725480
     6         -0.88973583          3.68848222          8.84468275
     1         -2.41260203          2.97406953         10.05459730
     1          0.78010499          3.89432140         10.05410361
     1         -1.42925201          5.55993484          8.15392397
     8          0.54889375         -1.30542141          9.67347970
     1          1.06002834         -3.07981946          9.82691460
    35         -0.44939256          2.15954379         -1.28851764
    35          1.81813052         -5.71138558          5.93533961

 Electric dipole moment (dipole orientation):
 (Debye = 10**-18 statcoulomb cm , SI units = C m)
                  (au)            (Debye)         (10**-30 SI)
   Tot        0.532491D+00      0.135346D+01      0.451465D+01
   x          0.000000D+00      0.000000D+00      0.000000D+00
   y          0.000000D+00      0.000000D+00      0.000000D+00
   z          0.532491D+00      0.135346D+01      0.451465D+01

 Dipole polarizability, Alpha (dipole orientation).
 (esu units = cm**3 , SI units = C**2 m**2 J**-1)
 Alpha(0;0):
               (au)            (10**-24 esu)      (10**-40 SI)
   iso        0.111603D+03      0.165379D+02      0.184009D+02
   aniso      0.111908D+03      0.165830D+02      0.184511D+02
   xx         0.472088D+02      0.699563D+01      0.778369D+01
   yx        -0.282968D+02     -0.419315D+01     -0.466551D+01
   yy         0.137283D+03      0.203432D+02      0.226349D+02
   zx         0.411926D+01      0.610411D+00      0.679174D+00
   zy        -0.142941D+02     -0.211817D+01     -0.235678D+01
   zz         0.150318D+03      0.222748D+02      0.247840D+02

 ----------------------------------------------------------------------
 Unable to Open any file for archive entry.
 1\1\GINC-RONG-OPTIPLEX-7040\Freq\RB3LYP\6-31G\C7H6Br2O1\RONG\23-Sep-20
 21\0\\#N Geom=AllCheck Guess=TCheck SCRF=Check GenChk RB3LYP/6-31G Fre
 q\\BrBrbz\\0,1\C,1.6000353679,-0.3429793242,0.0147536062\C,2.989237115
 6,-0.3094842154,0.0929218252\C,3.7055911261,0.8900481296,0.0936963861\
 C,3.012798307,2.1159348307,0.013156964\C,1.6157590377,2.0867935602,-0.
 0655888528\C,0.9312167807,0.872633522,-0.0640561486\H,1.0654711127,-1.
 2831603419,0.0156780766\H,1.0681546027,3.0194696559,-0.1280183194\C,3.
 7817928181,3.4110821311,0.013704257\H,4.3819292874,3.5154793663,0.9254
 125072\H,4.4817321971,3.4569729025,-0.8290671748\H,3.1043673425,4.2669
 288933,-0.0533757265\O,5.0820978813,0.9533768663,0.1700970146\H,5.4735
 778747,0.0559248734,0.2224635677\Br,-1.0142659213,0.8763518717,-0.1752
 118045\Br,3.9943410697,-1.9818727515,0.2061737021\\Version=ES64L-G16Re
 vC.01\State=1-A\HF=-5488.6572901\RMSD=3.465e-09\RMSF=4.387e-06\ZeroPoi
 nt=0.11388\Thermal=0.1236814\ETot=-5488.5336088\HTot=-5488.5326646\GTo
 t=-5488.5806246\Dipole=0.5031973,0.1726644,0.0229457\DipoleDeriv=-0.36
 83023,-0.0767991,-0.0157064,0.1350257,-0.2231703,0.0135649,-0.0227932,
 0.0014663,-0.0493286,0.2100058,-0.366865,0.0319235,-0.5961283,0.879029
 1,-0.0679037,0.0395916,-0.0548067,-0.1304063,1.1936228,0.1873978,0.051
 5484,-0.0499597,-0.2842144,0.0126907,0.0594538,0.0262384,0.1829413,-0.
 0120593,0.0002928,0.0004157,0.3064103,0.2938669,0.0069861,-0.0098374,-
 0.0105103,-0.0198271,-0.2593535,-0.0523843,-0.006954,0.0343573,0.01735
 88,-0.0021913,-0.0098529,-0.0071304,-0.1071367,1.1913724,0.0503555,0.0
 718072,-0.0829663,-0.0446057,-0.0064645,0.0762732,0.001139,-0.0921161,
 0.1005673,-0.0351119,-0.0024409,-0.0421206,0.0450239,0.0015703,-0.0022
 083,0.0019745,0.1637113,0.0786826,0.0715356,-0.0064031,0.0554584,0.000
 614,0.0081239,-0.0058656,0.0090389,0.1483358,-0.0286501,-0.1042096,-0.
 002101,-0.0547408,0.0585287,-0.0027655,-0.0037269,-0.0055366,0.0689532
 ,0.0281369,-0.0578003,-0.0934608,-0.046263,0.0206525,0.0059673,-0.0945
 849,-0.035152,-0.0442633,0.0056297,-0.0546439,0.1030189,-0.0384778,0.0
 219251,-0.0144775,0.1032154,0.0250495,-0.0230763,-0.0068856,0.1294425,
 -0.0104078,0.0448633,-0.0964886,0.0091156,-0.0075959,0.0139201,0.09938
 99,-1.5463174,0.0581924,-0.0623912,-0.0010145,-0.2458088,-0.0081378,-0
 .060371,-0.0047535,-0.4903949,0.4764601,-0.0013506,0.0044261,0.0744345
 ,0.2401011,0.0095949,0.0018848,0.0052675,0.3997154,-0.7464973,0.021464
 5,-0.0396591,0.0051655,-0.1302037,0.0025039,-0.0391178,0.0034339,-0.06
 64699,-0.3164121,0.2304838,-0.0236154,0.2559558,-0.5526087,0.0318228,-
 0.024465,0.0303614,-0.0400276\Polar=158.5064718,-10.0374966,136.709188
 8,7.1516154,-3.8383811,39.5935623\Quadrupole=-1.6133957,4.0830038,-2.4
 696081,-0.8027635,0.0765309,-0.2653908\PG=C01 [X(C7H6Br2O1)]\NImag=0\\
 0.69354514,0.04668725,0.75923699,0.02902329,-0.01744792,0.15989703,-0.
 34837408,-0.04521695,-0.01416511,0.64088297,0.01027013,-0.10698221,0.0
 0169852,0.08375241,0.50944597,-0.01601932,-0.00146818,-0.07456766,0.02
 654075,-0.00801543,0.12852753,-0.02465068,-0.03219943,-0.00088195,-0.1
 6290273,-0.13012496,-0.00064148,0.69849391,-0.07190828,0.03409162,-0.0
 0492020,-0.06113551,-0.26581787,0.00287618,-0.00047525,0.69954866,0.00
 044528,-0.00265341,0.00978020,-0.00294644,-0.00105996,-0.07556643,0.03
 000710,-0.01764079,0.17518811,-0.04399740,0.02981611,-0.00325562,0.056
 57870,0.02269815,0.00177995,-0.14753055,0.03672092,-0.00482344,0.70076
 558,0.02811156,-0.01546104,0.00197361,-0.02314601,-0.05691383,0.000986
 45,0.10331438,-0.26100896,0.01179894,-0.00011428,0.64171799,-0.0031993
 8,0.00207071,-0.00466865,0.00331257,0.00360312,0.01215918,-0.00705132,
 0.00799935,-0.08520037,0.02938001,-0.01525260,0.18811704,0.05495054,-0
 .01884320,0.00291946,-0.04600250,-0.02475275,-0.00135764,-0.03285362,0
 .06879294,-0.00465220,-0.33599192,-0.03059397,-0.01380966,0.69552534,0
 .02074226,-0.05780452,0.00361267,-0.03204866,-0.02002673,-0.00141765,0
 .03148310,0.03615600,0.00086749,0.03006844,-0.12676927,0.00341274,-0.0
 3258713,0.75152284,0.00159579,0.00135306,0.01488003,-0.00111315,-0.001
 00102,-0.00774935,-0.00340581,0.00299728,0.00808014,-0.01583834,-0.000
 04996,-0.07694932,0.03165156,-0.02163874,0.16247277,-0.15356918,0.1253
 7600,-0.00852564,-0.03815036,0.02783216,-0.00398313,0.00049533,0.00102
 740,0.00039091,-0.03361627,-0.03059772,-0.00161096,-0.15581640,-0.1213
 5142,-0.00047604,0.48053880,0.06866929,-0.30450575,0.01150410,0.082841
 38,0.02710037,0.00433482,0.00093719,-0.07285284,0.00225632,-0.07586793
 ,0.03061841,-0.00493469,-0.06622632,-0.29500585,0.00353118,-0.00424872
 ,0.67246131,-0.00662944,0.01474036,-0.07849914,-0.00582273,0.00119534,
 0.01496785,0.00039417,0.00226167,-0.00701412,-0.00009762,-0.00235005,0
 .01262343,-0.00231959,0.00038493,-0.07651789,0.02001911,-0.01830494,0.
 13398597,-0.12925529,-0.12891788,-0.00065042,-0.01378181,-0.02827904,-
 0.00013982,-0.00391891,0.00183762,-0.00057717,-0.00045072,0.00048597,0
 .00001549,-0.00118765,0.00305772,-0.00047194,0.00973371,0.01791083,-0.
 00036656,0.13631163,-0.12859370,-0.28232233,0.00068412,0.00524580,0.00
 303846,0.00037285,0.00096690,0.00117210,0.00018711,0.00068545,0.000456
 13,-0.00000977,0.00351821,-0.00228941,0.00045413,-0.01603516,-0.019230
 84,-0.00008276,0.13443009,0.29695390,-0.00066109,0.00066581,-0.0423985
 7,-0.00126088,-0.00154081,0.00521260,-0.00054808,0.00023709,0.00507847
 ,0.00000884,-0.00002123,-0.00100497,-0.00048726,0.00042785,0.00524800,
 0.00076835,0.00185444,0.00564590,0.00176977,-0.00136803,0.02670044,-0.
 00082400,-0.00328596,-0.00021637,-0.00069307,-0.00077186,-0.00001133,-
 0.00416989,-0.00151909,-0.00058971,-0.01352443,0.02805371,-0.00205412,
 -0.13159195,0.12754827,-0.00931572,0.00881883,-0.01840590,0.00085584,0
 .00069165,-0.00071083,0.00004655,0.14013110,-0.00348644,-0.00270903,0.
 00005520,-0.00075880,0.00082925,-0.00007243,-0.00146529,0.00087041,0.0
 0012317,-0.00390064,0.00284024,-0.00011593,0.12596659,-0.27397083,0.01
 490772,0.01676405,-0.02038275,0.00179222,0.00074082,-0.00075962,0.0000
 7742,-0.13289307,0.29075666,-0.00020964,0.00006673,0.00487839,-0.00001
 172,-0.00007313,-0.00004019,-0.00059166,0.00012004,0.00701921,-0.00098
 611,0.00170740,0.00591944,-0.00926230,0.01499786,-0.04409975,-0.000320
 18,-0.00021473,0.00459517,-0.00000200,-0.00000538,0.00029248,0.0108399
 2,-0.01636731,0.02919238,-0.00120541,-0.00130203,0.00002596,-0.0014079
 1,0.00308254,-0.00045210,0.01080200,0.01004712,-0.00001131,-0.11811209
 ,-0.04842796,-0.00087736,-0.02120758,-0.03216943,-0.00053317,-0.001518
 35,0.00221749,-0.00059812,0.00009182,-0.00000065,0.00002691,0.00117024
 ,-0.00130496,0.00040365,0.56148416,0.00019113,-0.00040302,-0.00000567,
 0.00306937,-0.00055829,0.00035130,-0.01223962,-0.03390306,0.00060668,-
 0.05493523,-0.18256157,0.00048594,-0.00582020,-0.00179315,-0.00003795,
 0.00159890,0.00160636,0.00029359,-0.00000750,-0.00002688,-0.00001217,0
 .00199030,0.00107012,-0.00009381,-0.04991810,0.52741375,-0.00002324,-0
 .00009048,-0.00089663,-0.00045177,0.00035091,0.00466686,0.00073612,0.0
 0187871,0.00507400,-0.00066091,0.00085474,-0.07440715,-0.00141562,-0.0
 0154177,0.00697823,-0.00057869,0.00032932,0.00763101,0.00002719,-0.000
 01190,-0.00037849,0.00029403,-0.00028223,-0.00511864,0.00258941,-0.002
 23943,0.54567254,0.00001222,0.00010217,-0.00009028,-0.00044093,-0.0001
 9489,0.00020624,-0.00062731,0.00180330,0.00025177,-0.01246571,-0.00529
 819,-0.01351968,0.00023674,-0.00200112,-0.00030557,-0.00035304,-0.0004
 6129,0.00098655,0.00000608,-0.00003078,-0.00003942,0.00018707,-0.00011
 766,-0.00066963,-0.12261174,-0.00970451,-0.12026638,0.13530095,-0.0005
 7553,-0.00022011,-0.00024972,-0.00000426,0.00082863,0.00087525,-0.0024
 5871,-0.00041771,-0.00025491,-0.01856163,-0.00515473,-0.02496646,-0.00
 004084,-0.00240154,-0.00013908,-0.00006540,-0.00030205,0.00104362,0.00
 002054,0.00001953,0.00002539,-0.00011870,0.00005642,-0.00040027,-0.010
 65178,-0.05107582,-0.01855187,0.01658639,0.05485513,-0.00005801,0.0000
 5350,-0.00004008,0.00011292,0.00000934,-0.00013971,-0.00180476,0.00015
 494,0.00084359,0.00158464,0.00028815,0.00341640,0.00074477,0.00013505,
 -0.00047938,0.00006229,-0.00013609,-0.00025343,0.00000404,-0.00000174,
 0.00004281,0.00011403,-0.00003259,0.00014053,-0.11966746,-0.01873532,-
 0.23010530,0.13223298,0.01966609,0.25081678,-0.00000695,0.00011274,0.0
 0008772,-0.00040153,-0.00020355,-0.00022658,-0.00078598,0.00177767,-0.
 00055719,-0.01370461,-0.00441413,0.01198373,0.00026958,-0.00195185,0.0
 0052295,-0.00023473,-0.00053869,-0.00095492,0.00000253,-0.00002831,0.0
 0003675,0.00012238,-0.00007597,0.00067600,-0.15108127,-0.00277020,0.12
 981545,0.01085030,0.00070852,-0.01520743,0.16668252,-0.00059592,-0.000
 20787,0.00019467,0.00009038,0.00076481,-0.00093247,-0.00235723,-0.0004
 0817,0.00006894,-0.02142599,-0.00357003,0.02320009,-0.00010892,-0.0023
 9849,0.00025760,0.00004954,-0.00036520,-0.00104104,0.00002271,0.000018
 03,-0.00002114,-0.00017099,0.00008483,0.00038965,-0.00373017,-0.049410
 66,0.00660066,0.00195651,0.00061744,-0.00166296,0.00882020,0.05317213,
 0.00010169,-0.00002975,-0.00003286,-0.00014917,-0.00009361,-0.00011536
 ,0.00177931,0.00013827,0.00099180,-0.00211027,-0.00033127,0.00307045,-
 0.00065407,-0.00023356,-0.00051304,-0.00006282,0.00008307,-0.00030919,
 -0.00001018,0.00000018,0.00004783,-0.00010485,0.00002749,0.00017645,0.
 12927936,0.00688995,-0.20328911,0.01905552,0.00018882,-0.02362084,-0.1
 4280198,-0.00604968,0.22110661,0.00001980,-0.00001136,0.00000321,0.000
 47195,-0.00018944,0.00001409,-0.00264769,-0.00288208,-0.00011349,0.009
 49046,-0.01831650,0.00117827,0.00088698,-0.00148467,0.00013119,0.00019
 667,-0.00011437,0.00002675,0.00000276,0.00000698,-0.00000354,0.0000730
 5,0.00016979,-0.00002037,-0.15590211,0.13263523,-0.01040649,-0.0107907
 3,0.01382357,0.00082968,-0.01253496,0.01619099,-0.00326015,0.17032984,
 -0.00035370,0.00018012,-0.00002727,0.00116603,0.00001820,0.00007750,-0
 .00354870,-0.00336265,-0.00005581,0.01876714,-0.02475740,0.00187775,0.
 00252133,0.00131005,0.00008212,0.00015593,-0.00014683,0.00000704,-0.00
 003477,0.00004209,-0.00000134,-0.00119471,0.00040180,-0.00007059,0.127
 45337,-0.20981776,0.01255542,-0.00242795,0.00265617,-0.00049954,-0.001
 30941,0.00121197,0.00021850,-0.14054577,0.23246258,0.00001443,-0.00000
 773,-0.00002964,-0.00003125,0.00000026,0.00033800,-0.00009168,-0.00001
 761,0.00103027,-0.00005810,-0.00023112,-0.00048224,-0.00000281,-0.0001
 4685,-0.00053851,0.00001803,-0.00000867,-0.00020761,-0.00000220,0.0000
 0107,0.00006165,0.00002502,0.00000749,0.00033562,-0.01023350,0.0128494
 5,-0.05174573,-0.01793488,0.02277256,-0.00075134,0.01663025,-0.0211336
 9,0.00243577,0.01163348,-0.01414012,0.04934953,0.00050020,-0.00033475,
 -0.00030931,-0.04291917,-0.00421510,-0.00275544,-0.28870116,-0.0331445
 9,-0.01276690,-0.04586777,0.00967030,-0.00336001,0.00673939,0.00226314
 ,0.00003386,-0.00054144,-0.00338460,0.00013363,-0.00098967,0.00027543,
 -0.00008168,-0.00084133,0.00004254,-0.00004602,0.00051107,-0.00418966,
 0.00040302,0.00090181,0.00136864,0.00072357,0.00100221,0.00128597,-0.0
 0071851,-0.00010392,-0.00052357,-0.00000158,0.47056456,0.00288103,-0.0
 0620368,0.00057655,-0.03941329,-0.00404603,-0.00185055,0.02339054,-0.1
 0187827,0.00322109,0.04634699,0.00077211,0.00286480,-0.00163175,-0.008
 02266,0.00033629,-0.00036270,0.00354361,-0.00016926,-0.00114811,0.0002
 4589,-0.00006444,0.00159994,0.00022181,0.00008189,0.00248961,0.0000239
 1,0.00000289,-0.00013751,0.00044875,0.00055219,-0.00008404,0.00043122,
 -0.00058525,0.00090698,0.00037919,0.00004719,-0.14128537,0.50408267,-0
 .00041653,0.00039240,0.00608097,-0.00157993,0.00015751,0.00777043,-0.0
 1465711,-0.00000363,-0.04632696,-0.00458755,0.00077232,0.00708643,0.00
 016343,0.00055876,0.00481224,0.00003260,-0.00034119,-0.00088547,-0.000
 03404,0.00001682,0.00027717,-0.00009807,-0.00000702,-0.00006638,0.0001
 7995,-0.00037753,-0.00408487,0.00020403,-0.00023380,0.00017282,-0.0001
 0254,0.00036464,0.00009104,-0.00004954,-0.00003488,0.00022991,0.029649
 29,-0.02379906,0.03621484,-0.00020859,0.00120670,-0.00003183,0.0003938
 4,0.00261923,-0.00006057,-0.03251323,0.04767937,-0.00337653,-0.0061755
 2,-0.00353222,-0.00035447,0.00019028,0.00189323,-0.00013675,-0.0000204
 6,-0.00034863,0.00001439,0.00013936,0.00002719,0.00000660,-0.00037929,
 -0.00011550,-0.00000637,0.00018529,-0.00076714,0.00004258,0.00001806,0
 .00010851,0.00018809,0.00002587,0.00011888,-0.00018930,0.00020866,-0.0
 0007254,0.00001079,-0.10093332,0.11475208,-0.00910028,0.13716303,0.000
 44187,-0.00116613,0.00005222,-0.00711249,0.00299316,-0.00050864,0.0005
 4496,-0.00139014,0.00003444,-0.00429176,0.00211735,-0.00024522,0.00062
 074,0.00003867,0.00008357,-0.00022902,-0.00039479,-0.00000218,-0.00042
 867,0.00015186,-0.00002927,-0.00006056,0.00012540,-0.00001433,0.000314
 80,-0.00033956,0.00002520,0.00009683,0.00018387,0.00025350,0.00013355,
 0.00015336,-0.00025365,0.00009620,-0.00000020,0.00000768,0.17075406,-0
 .38468359,0.02232301,-0.16175279,0.38422399,-0.00000646,0.00009602,-0.
 00036080,0.00026491,0.00004678,-0.00006696,-0.00179834,0.00272261,-0.0
 0148856,-0.00032926,-0.00020189,0.00209534,-0.00009402,0.00015621,0.00
 146784,0.00001037,-0.00000918,-0.00006780,0.00002181,-0.00000325,0.000
 00964,-0.00000819,-0.00001746,-0.00019998,0.00000681,-0.00003627,-0.00
 011230,-0.00011901,0.00020187,-0.00004431,0.00011751,-0.00020224,-0.00
 002186,0.00000512,-0.00000206,0.00006320,-0.01097511,0.01912870,-0.009
 98557,0.01275187,-0.02180111,0.00996753,-0.03278959,-0.00516070,-0.001
 88295,0.00174698,0.00159893,-0.00020518,0.00233265,0.00065565,0.000129
 80,0.00288969,-0.00387041,0.00005611,-0.03366530,0.00594129,-0.0022900
 4,-0.11467309,0.00043915,-0.00544246,0.00080109,-0.00026205,0.00021130
 ,0.00089742,0.00035358,0.00018120,-0.00085803,0.00100124,-0.00008832,-
 0.00027826,-0.00029346,0.00006525,-0.00026754,-0.00029286,-0.00007844,
 0.00017091,-0.00012194,0.00001284,-0.00332466,0.00008180,-0.00016900,0
 .00036795,-0.00021296,0.00003000,0.17781098,0.02137354,0.00095704,0.00
 129567,-0.00146226,-0.00227415,0.00013990,0.00012227,0.00098627,-0.000
 03702,0.00142678,-0.00291275,0.00031855,-0.02145817,0.00162000,-0.0011
 7921,0.00054855,-0.02494424,0.00021113,0.00034244,0.00093934,-0.000103
 73,-0.00013553,0.00070894,-0.00011449,-0.00044623,0.00031215,-0.000032
 61,-0.00007767,-0.00008604,0.00001015,-0.00007785,-0.00008982,-0.00001
 213,0.00006300,0.00005058,0.00000251,-0.00002248,0.00019126,-0.0000213
 4,-0.00007073,-0.00004020,-0.00000380,-0.00072677,0.02486588,-0.002770
 14,-0.00021855,0.00307533,-0.00010275,0.00031467,0.00439027,0.00014780
 ,-0.00000668,-0.00032037,-0.00012107,0.00001609,0.00416738,-0.00137378
 ,0.00038464,0.00288895,-0.00544632,0.00020467,-0.01988295,0.00019111,-
 0.00013823,-0.00273241,0.00019757,-0.00008653,-0.00246985,-0.00003987,
 0.00005015,0.00009730,0.00000807,0.00003348,0.00001817,-0.00003572,-0.
 00006007,0.00001132,0.00000668,-0.00000808,0.00001789,-0.00016566,-0.0
 0001538,-0.00041763,0.00002525,-0.00001191,-0.00003128,0.00957708,-0.0
 0052435,0.01098775,-0.01414674,0.03197127,-0.00205016,-0.04500035,0.03
 687806,-0.00268844,-0.01082214,0.00072282,-0.00081048,0.00171256,-0.00
 132454,-0.00008921,-0.00048194,0.00059684,-0.00004882,-0.00129002,-0.0
 0341888,-0.00019898,0.00180343,0.00050542,0.00020690,-0.00006777,0.000
 08097,0.00002521,-0.00034009,-0.00013400,-0.00001637,0.00005448,0.0001
 5414,0.00007539,0.00006219,0.00014689,-0.00007614,0.00012834,0.0000692
 6,0.00001115,0.00400322,-0.00838620,0.00056527,0.00153808,0.00108523,0
 .00012198,-0.00116121,0.00060113,-0.00009825,0.06400796,0.00614552,-0.
 01648008,0.00100345,0.03413286,-0.08839976,0.00425111,0.02410985,-0.03
 178538,0.00253773,-0.00743254,0.00058736,-0.00030838,0.00064344,-0.000
 16513,0.00004299,-0.00046241,0.00280107,0.00002034,-0.00003276,0.00159
 175,-0.00012584,0.00007499,-0.00014367,-0.00000953,0.00234638,-0.00053
 651,0.00015242,-0.00009363,-0.00000793,-0.00005467,-0.00009868,-0.0000
 0354,0.00004261,-0.00034855,-0.00062791,-0.00000241,0.00144005,-0.0055
 0620,0.00023301,-0.00174563,-0.00197303,-0.00007494,0.00086950,-0.0002
 8427,0.00006609,-0.05954842,0.14093324,-0.00118723,0.00247743,0.002902
 08,-0.00259625,0.00440752,-0.01978705,-0.00159232,0.00120279,0.0028310
 0,0.00011485,0.00004044,0.00405760,-0.00005027,0.00004038,0.00001901,-
 0.00029787,-0.00014845,0.00418828,0.00022491,-0.00009521,-0.00210254,0
 .00002538,-0.00000919,-0.00055487,-0.00009914,0.00001109,0.00001829,-0
 .00000032,-0.00001099,-0.00001672,0.00001599,0.00002704,-0.00002900,0.
 00002510,0.00002135,-0.00010678,0.00023687,-0.00032765,-0.00096898,0.0
 0021654,0.00008669,-0.00122413,-0.00010720,0.00005076,0.00020013,0.005
 07094,-0.00777400,0.01057369\\0.00001446,-0.00000020,-0.00000054,-0.00
 000655,-0.00000893,0.00000047,0.00000622,0.00000916,0.00000470,-0.0000
 0403,-0.00000503,-0.00000101,0.00000317,-0.00000189,-0.00000060,-0.000
 01329,0.00000651,-0.00000045,-0.00000135,0.00000049,-0.00000002,0.0000
 0018,0.00000055,0.00000050,0.00000310,0.00000520,-0.00000020,-0.000000
 33,-0.00000187,0.00000014,0.00000047,-0.00000089,-0.00000109,-0.000002
 05,0.00000066,0.00000028,-0.00000679,-0.00000565,-0.00000203,0.0000022
 8,-0.00000020,0.00000035,0.00000443,-0.00000136,0.00000014,0.00000008,
 0.00000345,-0.00000065\\\@
 The archive entry for this job was punched.


 IT IS DOUBTED WHETHER A MAN EVER BRINGS HIS FACULTIES TO BEAR WITH THEIR FULL FORCE
 ON A SUBJECT UNTIL HE WRITES UPON IT.

                          -- CICERO
 Job cpu time:       0 days  0 hours 11 minutes 15.7 seconds.
 Elapsed time:       0 days  0 hours  1 minutes 24.6 seconds.
 File lengths (MBytes):  RWF=    122 Int=      0 D2E=      0 Chk=      8 Scr=      1
 Normal termination of Gaussian 16 at Thu Sep 23 15:01:36 2021.
