 Entering Gaussian System, Link 0=/home/rong/g16/g16
 Input=/home/rong/g16/092321/MeHbz.gjf
 Output=/home/rong/g16/092321/MeHbz.log
 Initial command:
 /home/rong/g16/l1.exe "/tmp/Gau-194279.inp" -scrdir="/tmp/"
 Default is to use a total of   8 processors:
                                8 via shared-memory
                                1 via Linda
 Entering Link 1 = /home/rong/g16/l1.exe PID=    194281.
  
 Copyright (c) 1988-2019, Gaussian, Inc.  All Rights Reserved.
  
 This is part of the Gaussian(R) 16 program.  It is based on
 the Gaussian(R) 09 system (copyright 2009, Gaussian, Inc.),
 the Gaussian(R) 03 system (copyright 2003, Gaussian, Inc.),
 the Gaussian(R) 98 system (copyright 1998, Gaussian, Inc.),
 the Gaussian(R) 94 system (copyright 1995, Gaussian, Inc.),
 the Gaussian 92(TM) system (copyright 1992, Gaussian, Inc.),
 the Gaussian 90(TM) system (copyright 1990, Gaussian, Inc.),
 the Gaussian 88(TM) system (copyright 1988, Gaussian, Inc.),
 the Gaussian 86(TM) system (copyright 1986, Carnegie Mellon
 University), and the Gaussian 82(TM) system (copyright 1983,
 Carnegie Mellon University). Gaussian is a federally registered
 trademark of Gaussian, Inc.
  
 This software contains proprietary and confidential information,
 including trade secrets, belonging to Gaussian, Inc.
  
 This software is provided under written license and may be
 used, copied, transmitted, or stored only in accord with that
 written license.
  
 The following legend is applicable only to US Government
 contracts under FAR:
  
                    RESTRICTED RIGHTS LEGEND
  
 Use, reproduction and disclosure by the US Government is
 subject to restrictions as set forth in subparagraphs (a)
 and (c) of the Commercial Computer Software - Restricted
 Rights clause in FAR 52.227-19.
  
 Gaussian, Inc.
 340 Quinnipiac St., Bldg. 40, Wallingford CT 06492
  
  
 ---------------------------------------------------------------
 Warning -- This program may not be used in any manner that
 competes with the business of Gaussian, Inc. or will provide
 assistance to any competitor of Gaussian, Inc.  The licensee
 of this program is prohibited from giving any competitor of
 Gaussian, Inc. access to this program.  By using this program,
 the user acknowledges that Gaussian, Inc. is engaged in the
 business of creating and licensing software in the field of
 computational chemistry and represents and warrants to the
 licensee that it is not a competitor of Gaussian, Inc. and that
 it will not use this program in any manner prohibited above.
 ---------------------------------------------------------------
  

 Cite this work as:
 Gaussian 16, Revision C.01,
 M. J. Frisch, G. W. Trucks, H. B. Schlegel, G. E. Scuseria, 
 M. A. Robb, J. R. Cheeseman, G. Scalmani, V. Barone, 
 G. A. Petersson, H. Nakatsuji, X. Li, M. Caricato, A. V. Marenich, 
 J. Bloino, B. G. Janesko, R. Gomperts, B. Mennucci, H. P. Hratchian, 
 J. V. Ortiz, A. F. Izmaylov, J. L. Sonnenberg, D. Williams-Young, 
 F. Ding, F. Lipparini, F. Egidi, J. Goings, B. Peng, A. Petrone, 
 T. Henderson, D. Ranasinghe, V. G. Zakrzewski, J. Gao, N. Rega, 
 G. Zheng, W. Liang, M. Hada, M. Ehara, K. Toyota, R. Fukuda, 
 J. Hasegawa, M. Ishida, T. Nakajima, Y. Honda, O. Kitao, H. Nakai, 
 T. Vreven, K. Throssell, J. A. Montgomery, Jr., J. E. Peralta, 
 F. Ogliaro, M. J. Bearpark, J. J. Heyd, E. N. Brothers, K. N. Kudin, 
 V. N. Staroverov, T. A. Keith, R. Kobayashi, J. Normand, 
 K. Raghavachari, A. P. Rendell, J. C. Burant, S. S. Iyengar, 
 J. Tomasi, M. Cossi, J. M. Millam, M. Klene, C. Adamo, R. Cammi, 
 J. W. Ochterski, R. L. Martin, K. Morokuma, O. Farkas, 
 J. B. Foresman, and D. J. Fox, Gaussian, Inc., Wallingford CT, 2019.
 
 ******************************************
 Gaussian 16:  ES64L-G16RevC.01  3-Jul-2019
                16-Nov-2021 
 ******************************************
 %mem=15GB
 %chk=MeHbz.chk
 %nprocshared=8
 Will use up to    8 processors via shared memory.
 ----------------------------------------------------
 # opt freq b3lyp/6-31g(d) scrf=(smd,solvent=toluene)
 ----------------------------------------------------
 1/18=20,19=15,26=3,38=1/1,3;
 2/9=110,12=2,17=6,18=5,40=1/2;
 3/5=1,6=6,7=1,11=2,25=1,30=1,70=32201,71=1,72=13,74=-5/1,2,3;
 4//1;
 5/5=2,38=5,53=13/2;
 6/7=2,8=2,9=2,10=2,28=1/1;
 7//1,2,3,16;
 1/18=20,19=15,26=3/3(2);
 2/9=110/2;
 99//99;
 2/9=110/2;
 3/5=1,6=6,7=1,11=2,25=1,30=1,70=32205,71=1,72=13,74=-5/1,2,3;
 4/5=5,16=3,69=1/1;
 5/5=2,38=5,53=13/2;
 7//1,2,3,16;
 1/18=20,19=15,26=3/3(-5);
 2/9=110/2;
 6/7=2,8=2,9=2,10=2,19=2,28=1/1;
 99/9=1/99;
 -----
 MeHbz
 -----
 Symbolic Z-matrix:
 Charge =  0 Multiplicity = 1
 C                     0.48529   0.07353   0. 
 C                     1.88045   0.07353   0. 
 C                     2.57799   1.28128   0. 
 C                     1.88034   2.48979  -0.0012 
 C                     0.48551   2.48971  -0.00168 
 C                    -0.21209   1.28151  -0.00068 
 H                    -0.06446  -0.87879   0.00045 
 H                    -0.06461   3.44199  -0.00263 
 H                    -1.31169   1.28169  -0.00086 
 C                     2.65001  -1.26041   0.00184 
 H                     2.81338  -1.57653   1.01094 
 H                     2.07902  -2.00229  -0.51632 
 H                     3.5923   -1.12923  -0.48782 
 C                     2.65084   3.82318  -0.00128 
 H                     3.27913   3.8721    0.86345 
 H                     3.25278   3.88722  -0.88359 
 H                     1.95596   4.63665   0.01624 
 O                     4.00799   1.28138   0.00082 
 H                     4.32792   1.27781   0.90594 
 

 GradGradGradGradGradGradGradGradGradGradGradGradGradGradGradGradGradGrad
 Berny optimization.
 Initialization pass.
                           ----------------------------
                           !    Initial Parameters    !
                           ! (Angstroms and Degrees)  !
 --------------------------                            --------------------------
 ! Name  Definition              Value          Derivative Info.                !
 --------------------------------------------------------------------------------
 ! R1    R(1,2)                  1.3952         estimate D2E/DX2                !
 ! R2    R(1,6)                  1.3948         estimate D2E/DX2                !
 ! R3    R(1,7)                  1.0996         estimate D2E/DX2                !
 ! R4    R(2,3)                  1.3947         estimate D2E/DX2                !
 ! R5    R(2,10)                 1.54           estimate D2E/DX2                !
 ! R6    R(3,4)                  1.3954         estimate D2E/DX2                !
 ! R7    R(3,18)                 1.43           estimate D2E/DX2                !
 ! R8    R(4,5)                  1.3948         estimate D2E/DX2                !
 ! R9    R(4,14)                 1.54           estimate D2E/DX2                !
 ! R10   R(5,6)                  1.3951         estimate D2E/DX2                !
 ! R11   R(5,8)                  1.0998         estimate D2E/DX2                !
 ! R12   R(6,9)                  1.0996         estimate D2E/DX2                !
 ! R13   R(10,11)                1.07           estimate D2E/DX2                !
 ! R14   R(10,12)                1.07           estimate D2E/DX2                !
 ! R15   R(10,13)                1.07           estimate D2E/DX2                !
 ! R16   R(14,15)                1.07           estimate D2E/DX2                !
 ! R17   R(14,16)                1.07           estimate D2E/DX2                !
 ! R18   R(14,17)                1.07           estimate D2E/DX2                !
 ! R19   R(18,19)                0.96           estimate D2E/DX2                !
 ! A1    A(2,1,6)              119.9985         estimate D2E/DX2                !
 ! A2    A(2,1,7)              119.9972         estimate D2E/DX2                !
 ! A3    A(6,1,7)              120.0043         estimate D2E/DX2                !
 ! A4    A(1,2,3)              120.0086         estimate D2E/DX2                !
 ! A5    A(1,2,10)             119.9808         estimate D2E/DX2                !
 ! A6    A(3,2,10)             120.0105         estimate D2E/DX2                !
 ! A7    A(2,3,4)              119.9942         estimate D2E/DX2                !
 ! A8    A(2,3,18)             120.0128         estimate D2E/DX2                !
 ! A9    A(4,3,18)             119.993          estimate D2E/DX2                !
 ! A10   A(3,4,5)              119.994          estimate D2E/DX2                !
 ! A11   A(3,4,14)             119.9811         estimate D2E/DX2                !
 ! A12   A(5,4,14)             120.0249         estimate D2E/DX2                !
 ! A13   A(4,5,6)              120.0047         estimate D2E/DX2                !
 ! A14   A(4,5,8)              120.0113         estimate D2E/DX2                !
 ! A15   A(6,5,8)              119.984          estimate D2E/DX2                !
 ! A16   A(1,6,5)              120.0            estimate D2E/DX2                !
 ! A17   A(1,6,9)              120.008          estimate D2E/DX2                !
 ! A18   A(5,6,9)              119.992          estimate D2E/DX2                !
 ! A19   A(2,10,11)            109.4712         estimate D2E/DX2                !
 ! A20   A(2,10,12)            109.4712         estimate D2E/DX2                !
 ! A21   A(2,10,13)            109.4712         estimate D2E/DX2                !
 ! A22   A(11,10,12)           109.4713         estimate D2E/DX2                !
 ! A23   A(11,10,13)           109.4712         estimate D2E/DX2                !
 ! A24   A(12,10,13)           109.4712         estimate D2E/DX2                !
 ! A25   A(4,14,15)            109.4712         estimate D2E/DX2                !
 ! A26   A(4,14,16)            109.4712         estimate D2E/DX2                !
 ! A27   A(4,14,17)            109.4712         estimate D2E/DX2                !
 ! A28   A(15,14,16)           109.4713         estimate D2E/DX2                !
 ! A29   A(15,14,17)           109.4712         estimate D2E/DX2                !
 ! A30   A(16,14,17)           109.4712         estimate D2E/DX2                !
 ! A31   A(3,18,19)            109.5            estimate D2E/DX2                !
 ! D1    D(6,1,2,3)              0.0323         estimate D2E/DX2                !
 ! D2    D(6,1,2,10)           179.9532         estimate D2E/DX2                !
 ! D3    D(7,1,2,3)           -179.9729         estimate D2E/DX2                !
 ! D4    D(7,1,2,10)            -0.052          estimate D2E/DX2                !
 ! D5    D(2,1,6,5)              0.0149         estimate D2E/DX2                !
 ! D6    D(2,1,6,9)            179.9892         estimate D2E/DX2                !
 ! D7    D(7,1,6,5)           -179.9798         estimate D2E/DX2                !
 ! D8    D(7,1,6,9)             -0.0056         estimate D2E/DX2                !
 ! D9    D(1,2,3,4)             -0.0568         estimate D2E/DX2                !
 ! D10   D(1,2,3,18)           179.9619         estimate D2E/DX2                !
 ! D11   D(10,2,3,4)          -179.9777         estimate D2E/DX2                !
 ! D12   D(10,2,3,18)            0.041          estimate D2E/DX2                !
 ! D13   D(1,2,10,11)          -89.026          estimate D2E/DX2                !
 ! D14   D(1,2,10,12)           30.974          estimate D2E/DX2                !
 ! D15   D(1,2,10,13)          150.974          estimate D2E/DX2                !
 ! D16   D(3,2,10,11)           90.8949         estimate D2E/DX2                !
 ! D17   D(3,2,10,12)         -149.1051         estimate D2E/DX2                !
 ! D18   D(3,2,10,13)          -29.1051         estimate D2E/DX2                !
 ! D19   D(2,3,4,5)              0.0341         estimate D2E/DX2                !
 ! D20   D(2,3,4,14)          -179.9964         estimate D2E/DX2                !
 ! D21   D(18,3,4,5)          -179.9846         estimate D2E/DX2                !
 ! D22   D(18,3,4,14)           -0.0151         estimate D2E/DX2                !
 ! D23   D(2,3,18,19)          -89.7534         estimate D2E/DX2                !
 ! D24   D(4,3,18,19)           90.2653         estimate D2E/DX2                !
 ! D25   D(3,4,5,6)              0.0131         estimate D2E/DX2                !
 ! D26   D(3,4,5,8)           -179.9995         estimate D2E/DX2                !
 ! D27   D(14,4,5,6)          -179.9563         estimate D2E/DX2                !
 ! D28   D(14,4,5,8)             0.0311         estimate D2E/DX2                !
 ! D29   D(3,4,14,15)          -58.9488         estimate D2E/DX2                !
 ! D30   D(3,4,14,16)           61.0513         estimate D2E/DX2                !
 ! D31   D(3,4,14,17)         -178.9488         estimate D2E/DX2                !
 ! D32   D(5,4,14,15)          121.0207         estimate D2E/DX2                !
 ! D33   D(5,4,14,16)         -118.9793         estimate D2E/DX2                !
 ! D34   D(5,4,14,17)            1.0207         estimate D2E/DX2                !
 ! D35   D(4,5,6,1)             -0.0376         estimate D2E/DX2                !
 ! D36   D(4,5,6,9)            179.9881         estimate D2E/DX2                !
 ! D37   D(8,5,6,1)            179.975          estimate D2E/DX2                !
 ! D38   D(8,5,6,9)              0.0007         estimate D2E/DX2                !
 --------------------------------------------------------------------------------
 Trust Radius=3.00D-01 FncErr=1.00D-07 GrdErr=1.00D-06 EigMax=2.50D+02 EigMin=1.00D-04
 Number of steps in this run=     98 maximum allowed number of steps=    114.
 GradGradGradGradGradGradGradGradGradGradGradGradGradGradGradGradGradGrad

                          Input orientation:                          
 ---------------------------------------------------------------------
 Center     Atomic      Atomic             Coordinates (Angstroms)
 Number     Number       Type             X           Y           Z
 ---------------------------------------------------------------------
      1          6           0        0.485294    0.073529    0.000000
      2          6           0        1.880454    0.073529    0.000000
      3          6           0        2.577992    1.281280    0.000000
      4          6           0        1.880338    2.489789   -0.001199
      5          6           0        0.485513    2.489711   -0.001678
      6          6           0       -0.212088    1.281505   -0.000682
      7          1           0       -0.064465   -0.878788    0.000450
      8          1           0       -0.064609    3.441992   -0.002631
      9          1           0       -1.311692    1.281688   -0.000862
     10          6           0        2.650006   -1.260407    0.001842
     11          1           0        2.813382   -1.576525    1.010939
     12          1           0        2.079022   -2.002289   -0.516316
     13          1           0        3.592305   -1.129232   -0.487818
     14          6           0        2.650842    3.823177   -0.001282
     15          1           0        3.279131    3.872104    0.863449
     16          1           0        3.252781    3.887222   -0.883590
     17          1           0        1.955964    4.636650    0.016238
     18          8           0        4.007992    1.281384    0.000824
     19          1           0        4.327925    1.277814    0.905938
 ---------------------------------------------------------------------
                    Distance matrix (angstroms):
                    1          2          3          4          5
     1  C    0.000000
     2  C    1.395160   0.000000
     3  C    2.416205   1.394712   0.000000
     4  C    2.790065   2.416260   1.395427   0.000000
     5  C    2.416183   2.789946   2.416356   1.394825   0.000000
     6  C    1.394829   2.416183   2.790080   2.416236   1.395138
     7  H    1.099610   2.165553   3.412986   3.889675   3.413102
     8  H    3.413055   3.889707   3.413506   2.165528   1.099761
     9  H    2.165365   3.413128   3.889684   3.412999   2.165471
    10  C    2.542709   1.540000   2.542708   3.828364   4.329946
    11  H    3.027321   2.148263   3.040470   4.293007   4.793605
    12  H    2.667503   2.148263   3.361158   4.525880   4.793974
    13  H    3.367212   2.148263   2.660332   4.032982   4.794292
    14  C    4.330065   3.827971   2.542941   1.540000   2.542987
    15  H    4.793771   4.138963   2.819487   2.148263   3.234773
    16  H    4.794160   4.148285   2.833197   2.148263   3.223132
    17  H    4.794289   4.563774   3.412578   2.148263   2.602286
    18  O    3.724019   2.446494   1.430000   2.446867   3.723965
    19  H    4.127570   2.874220   1.970533   2.877927   4.129962
                    6          7          8          9         10
     6  C    0.000000
     7  H    2.165331   0.000000
     8  H    2.165516   4.320781   0.000000
     9  H    1.099604   2.494641   2.494420   0.000000
    10  C    3.827912   2.741166   5.429707   4.707155   0.000000
    11  H    4.283128   3.128886   5.873302   5.119508   1.070000
    12  H    4.037123   2.474639   5.873604   4.748383   1.070000
    13  H    4.530161   3.697715   5.874054   5.486242   1.070000
    14  C    3.828376   5.429675   2.742076   4.707530   5.083585
    15  H    4.432441   5.873276   3.480760   5.341624   5.242217
    16  H    4.424320   5.873713   3.461126   5.329393   5.257890
    17  H    3.994713   5.873877   2.347398   4.683336   5.937776
    18  O    4.220080   4.609908   4.610240   5.319684   2.881810
    19  H    4.629653   4.976337   4.980313   5.712056   3.174172
                   11         12         13         14         15
    11  H    0.000000
    12  H    1.747303   0.000000
    13  H    1.747303   1.747303   0.000000
    14  C    5.496162   5.876078   5.064526   0.000000
    15  H    5.470488   6.152439   5.190122   1.070000   0.000000
    16  H    5.799556   6.016556   5.043483   1.070000   1.747303
    17  H    6.350444   6.661401   6.014738   1.070000   1.747303
    18  O    3.258078   3.843289   2.494522   2.881418   2.826162
    19  H    3.232974   4.223677   2.877076   3.180334   2.798592
                   16         17         18         19
    16  H    0.000000
    17  H    1.747303   0.000000
    18  O    2.853581   3.933047   0.000000
    19  H    3.341759   4.207082   0.960000   0.000000
 Stoichiometry    C8H10O
 Framework group  C1[X(C8H10O)]
 Deg. of freedom    51
 Full point group                 C1      NOp   1
 Largest Abelian subgroup         C1      NOp   1
 Largest concise Abelian subgroup C1      NOp   1
                         Standard orientation:                         
 ---------------------------------------------------------------------
 Center     Atomic      Atomic             Coordinates (Angstroms)
 Number     Number       Type             X           Y           Z
 ---------------------------------------------------------------------
      1          6           0       -1.208000    1.428485    0.011550
      2          6           0       -1.207895    0.033554   -0.013718
      3          6           0       -0.000091   -0.663792   -0.025578
      4          6           0        1.208366    0.033846   -0.013367
      5          6           0        1.208183    1.428451    0.011416
      6          6           0       -0.000076    2.125842    0.024273
      7          1           0       -2.160358    1.978085    0.021347
      8          1           0        2.160423    1.978560    0.021037
      9          1           0        0.000024    3.225269    0.044009
     10          6           0       -2.541774   -0.735990   -0.026669
     11          1           0       -2.858525   -0.917635    0.979101
     12          1           0       -3.283367   -0.155762   -0.534876
     13          1           0       -2.410215   -1.669257   -0.533231
     14          6           0        2.541811   -0.736445   -0.026551
     15          1           0        2.590233   -1.380290    0.826690
     16          1           0        2.606466   -1.322302   -0.919575
     17          1           0        3.355220   -0.041947    0.004073
     18          8           0        0.000120   -2.093573   -0.050653
     19          1           0       -0.004005   -2.429846    0.848515
 ---------------------------------------------------------------------
 Rotational constants (GHZ):           2.2243530           1.7529345           0.9953107
 Standard basis: 6-31G(d) (6D, 7F)
 There are   155 symmetry adapted cartesian basis functions of A   symmetry.
 There are   155 symmetry adapted basis functions of A   symmetry.
   155 basis functions,   292 primitive gaussians,   155 cartesian basis functions
    33 alpha electrons       33 beta electrons
       nuclear repulsion energy       428.6976426937 Hartrees.
 NAtoms=   19 NActive=   19 NUniq=   19 SFac= 1.00D+00 NAtFMM=   60 NAOKFM=F Big=F
 Integral buffers will be    131072 words long.
 Raffenetti 2 integral format.
 Two-electron integral symmetry is turned on.
 ------------------------------------------------------------------------------
 Polarizable Continuum Model (PCM)
 =================================
 Model                : PCM.
 Atomic radii         : SMD-Coulomb.
 Polarization charges : Total charges.
 Charge compensation  : None.
 Solution method      : On-the-fly selection.
 Cavity type          : VdW (van der Waals Surface) (Alpha=1.000).
 Cavity algorithm     : GePol (No added spheres)
                        Default sphere list used, NSphG=   19.
                        Lebedev-Laikov grids with approx.  5.0 points / Ang**2.
                        Smoothing algorithm: York/Karplus (Gamma=1.0000).
                        Polarization charges: spherical gaussians, with
                                              point-specific exponents (IZeta= 3).
                        Self-potential: point-specific (ISelfS= 7).
                        Self-field    : sphere-specific E.n sum rule (ISelfD= 2).
 1st derivatives      : Analytical E(r).r(x)/FMM algorithm (CHGder, D1EAlg=3).
                        Cavity 1st derivative terms included.
 Solvent              : Toluene, Eps=   2.374100 Eps(inf)=   2.238315
 ------------------------------------------------------------------------------
 Spheres list:
 ISph  on   Nord     Re0    Alpha      Xe            Ye            Ze
    1   C      1    1.8500  1.000     -1.208000      1.428485      0.011550
    2   C      2    1.8500  1.000     -1.207895      0.033554     -0.013718
    3   C      3    1.8500  1.000     -0.000091     -0.663792     -0.025578
    4   C      4    1.8500  1.000      1.208366      0.033846     -0.013367
    5   C      5    1.8500  1.000      1.208183      1.428451      0.011416
    6   C      6    1.8500  1.000     -0.000076      2.125842      0.024273
    7   H      7    1.2000  1.000     -2.160358      1.978085      0.021347
    8   H      8    1.2000  1.000      2.160423      1.978560      0.021037
    9   H      9    1.2000  1.000      0.000024      3.225269      0.044009
   10   C     10    1.8500  1.000     -2.541774     -0.735990     -0.026669
   11   H     11    1.2000  1.000     -2.858525     -0.917635      0.979101
   12   H     12    1.2000  1.000     -3.283367     -0.155762     -0.534876
   13   H     13    1.2000  1.000     -2.410215     -1.669257     -0.533231
   14   C     14    1.8500  1.000      2.541811     -0.736445     -0.026551
   15   H     15    1.2000  1.000      2.590233     -1.380290      0.826690
   16   H     16    1.2000  1.000      2.606466     -1.322302     -0.919575
   17   H     17    1.2000  1.000      3.355220     -0.041947      0.004073
   18   O     18    2.2940  1.000      0.000120     -2.093573     -0.050653
   19   H     19    1.2000  1.000     -0.004005     -2.429846      0.848515
 ------------------------------------------------------------------------------
 ------------------------------------------------------------------------------
 Atomic radii for non-electrostatic terms: SMD-CDS.
 ------------------------------------------------------------------------------
 Nuclear repulsion after PCM non-electrostatic terms =      428.6914842123 Hartrees.
 One-electron integrals computed using PRISM.
 NBasis=   155 RedAO= T EigKep=  3.66D-04  NBF=   155
 NBsUse=   155 1.00D-06 EigRej= -1.00D+00 NBFU=   155
 ExpMin= 1.61D-01 ExpMax= 5.48D+03 ExpMxC= 8.25D+02 IAcc=3 IRadAn=         5 AccDes= 0.00D+00
 Harris functional with IExCor=  402 and IRadAn=       5 diagonalized for initial guess.
 HarFok:  IExCor=  402 AccDes= 0.00D+00 IRadAn=         5 IDoV= 1 UseB2=F ITyADJ=14
 ICtDFT=  3500011 ScaDFX=  1.000000  1.000000  1.000000  1.000000
 FoFCou: FMM=F IPFlag=           0 FMFlag=      100000 FMFlg1=           0
         NFxFlg=           0 DoJE=T BraDBF=F KetDBF=T FulRan=T
         wScrn=  0.000000 ICntrl=       500 IOpCl=  0 I1Cent=   200000004 NGrid=           0
         NMat0=    1 NMatS0=      1 NMatT0=    0 NMatD0=    1 NMtDS0=    0 NMtDT0=    0
 Petite list used in FoFCou.
 Requested convergence on RMS density matrix=1.00D-08 within 128 cycles.
 Requested convergence on MAX density matrix=1.00D-06.
 Requested convergence on             energy=1.00D-06.
 No special actions if energy rises.
 Inv3:  Mode=1 IEnd=     6553452.
 Iteration    1 A*A^-1 deviation from unit magnitude is 3.11D-15 for   1478.
 Iteration    1 A*A^-1 deviation from orthogonality  is 1.20D-15 for    405     34.
 Iteration    1 A^-1*A deviation from unit magnitude is 3.00D-15 for   1478.
 Iteration    1 A^-1*A deviation from orthogonality  is 1.55D-15 for    579    115.
 Error on total polarization charges =  0.02022
 SCF Done:  E(RB3LYP) =  -386.098604784     A.U. after   12 cycles
            NFock= 12  Conv=0.93D-08     -V/T= 2.0095
 SMD-CDS (non-electrostatic) energy       (kcal/mol) =      -3.86
 (included in total energy above)

 **********************************************************************

            Population analysis using the SCF Density.

 **********************************************************************

 Orbital symmetries:
       Occupied  (A) (A) (A) (A) (A) (A) (A) (A) (A) (A) (A) (A)
                 (A) (A) (A) (A) (A) (A) (A) (A) (A) (A) (A) (A)
                 (A) (A) (A) (A) (A) (A) (A) (A) (A)
       Virtual   (A) (A) (A) (A) (A) (A) (A) (A) (A) (A) (A) (A)
                 (A) (A) (A) (A) (A) (A) (A) (A) (A) (A) (A) (A)
                 (A) (A) (A) (A) (A) (A) (A) (A) (A) (A) (A) (A)
                 (A) (A) (A) (A) (A) (A) (A) (A) (A) (A) (A) (A)
                 (A) (A) (A) (A) (A) (A) (A) (A) (A) (A) (A) (A)
                 (A) (A) (A) (A) (A) (A) (A) (A) (A) (A) (A) (A)
                 (A) (A) (A) (A) (A) (A) (A) (A) (A) (A) (A) (A)
                 (A) (A) (A) (A) (A) (A) (A) (A) (A) (A) (A) (A)
                 (A) (A) (A) (A) (A) (A) (A) (A) (A) (A) (A) (A)
                 (A) (A) (A) (A) (A) (A) (A) (A) (A) (A) (A) (A)
                 (A) (A)
 The electronic state is 1-A.
 Alpha  occ. eigenvalues --  -19.15567 -10.23086 -10.18965 -10.18938 -10.18192
 Alpha  occ. eigenvalues --  -10.18038 -10.18017 -10.16850 -10.16688  -1.02299
 Alpha  occ. eigenvalues --   -0.84707  -0.77260  -0.74316  -0.68584  -0.67281
 Alpha  occ. eigenvalues --   -0.58890  -0.57018  -0.52204  -0.47011  -0.46636
 Alpha  occ. eigenvalues --   -0.42810  -0.41253  -0.41075  -0.39859  -0.39280
 Alpha  occ. eigenvalues --   -0.38787  -0.37073  -0.34024  -0.33528  -0.33170
 Alpha  occ. eigenvalues --   -0.28552  -0.23358  -0.23194
 Alpha virt. eigenvalues --    0.00936   0.01113   0.07420   0.10540   0.13726
 Alpha virt. eigenvalues --    0.14999   0.15365   0.16197   0.17692   0.18504
 Alpha virt. eigenvalues --    0.19084   0.20271   0.21810   0.23014   0.24985
 Alpha virt. eigenvalues --    0.25853   0.33710   0.34086   0.36622   0.38384
 Alpha virt. eigenvalues --    0.48955   0.49287   0.52034   0.54401   0.55417
 Alpha virt. eigenvalues --    0.55630   0.56675   0.57549   0.58786   0.61394
 Alpha virt. eigenvalues --    0.62673   0.62751   0.63526   0.66067   0.68736
 Alpha virt. eigenvalues --    0.69596   0.72378   0.74816   0.76761   0.77286
 Alpha virt. eigenvalues --    0.80635   0.82359   0.83750   0.84453   0.87102
 Alpha virt. eigenvalues --    0.89511   0.91308   0.92463   0.93510   0.95506
 Alpha virt. eigenvalues --    0.95915   0.97485   0.98411   1.00582   1.06249
 Alpha virt. eigenvalues --    1.07468   1.09924   1.11403   1.15642   1.18250
 Alpha virt. eigenvalues --    1.20432   1.25940   1.28097   1.28689   1.36540
 Alpha virt. eigenvalues --    1.38943   1.39973   1.42125   1.48270   1.49484
 Alpha virt. eigenvalues --    1.50620   1.56785   1.68924   1.75276   1.77431
 Alpha virt. eigenvalues --    1.79554   1.82898   1.84801   1.85191   1.89083
 Alpha virt. eigenvalues --    1.90446   1.92473   1.92751   1.95172   1.98881
 Alpha virt. eigenvalues --    2.04245   2.08557   2.11375   2.19684   2.20270
 Alpha virt. eigenvalues --    2.23772   2.26558   2.27508   2.29174   2.31665
 Alpha virt. eigenvalues --    2.32901   2.36283   2.37610   2.38378   2.40502
 Alpha virt. eigenvalues --    2.45970   2.55726   2.59191   2.64137   2.67674
 Alpha virt. eigenvalues --    2.73227   2.79062   2.81215   2.82722   2.84136
 Alpha virt. eigenvalues --    3.03015   3.14784   3.42533   3.95663   4.10052
 Alpha virt. eigenvalues --    4.12317   4.17483   4.25322   4.35579   4.41678
 Alpha virt. eigenvalues --    4.42851   4.77435
          Condensed to atoms (all electrons):
               1          2          3          4          5          6
     1  C    4.987394   0.533081  -0.010885  -0.042934  -0.038268   0.516935
     2  C    0.533081   4.830558   0.480393  -0.069584  -0.043402  -0.014494
     3  C   -0.010885   0.480393   4.786227   0.468062  -0.013817  -0.056107
     4  C   -0.042934  -0.069584   0.468062   4.836864   0.552478  -0.019327
     5  C   -0.038268  -0.043402  -0.013817   0.552478   4.971634   0.514586
     6  C    0.516935  -0.014494  -0.056107  -0.019327   0.514586   4.919496
     7  H    0.358823  -0.041924   0.004320   0.000370   0.004519  -0.043492
     8  H    0.004538   0.000325   0.004604  -0.037950   0.355982  -0.044411
     9  H   -0.037728   0.003252   0.001246   0.003376  -0.037335   0.352726
    10  C   -0.067120   0.336035  -0.046259   0.008622   0.000423   0.006771
    11  H   -0.000837  -0.023732  -0.002437  -0.000280   0.000049  -0.000188
    12  H   -0.002076  -0.029968   0.003139  -0.000109   0.000004   0.000105
    13  H    0.003052  -0.029325  -0.005804   0.000404  -0.000015  -0.000170
    14  C    0.000426   0.008420  -0.054336   0.334895  -0.059948   0.007263
    15  H    0.000033  -0.000007  -0.003954  -0.026641   0.001486  -0.000215
    16  H    0.000006  -0.000035  -0.004471  -0.025127   0.000581  -0.000171
    17  H   -0.000006  -0.000099   0.004383  -0.030686  -0.002457   0.000152
    18  O    0.003788  -0.074065   0.284864  -0.082438   0.003465  -0.000087
    19  H   -0.000094  -0.003032  -0.023003  -0.000668  -0.000019   0.000011
               7          8          9         10         11         12
     1  C    0.358823   0.004538  -0.037728  -0.067120  -0.000837  -0.002076
     2  C   -0.041924   0.000325   0.003252   0.336035  -0.023732  -0.029968
     3  C    0.004320   0.004604   0.001246  -0.046259  -0.002437   0.003139
     4  C    0.000370  -0.037950   0.003376   0.008622  -0.000280  -0.000109
     5  C    0.004519   0.355982  -0.037335   0.000423   0.000049   0.000004
     6  C   -0.043492  -0.044411   0.352726   0.006771  -0.000188   0.000105
     7  H    0.591496  -0.000184  -0.004723  -0.009475   0.000688   0.004459
     8  H   -0.000184   0.590457  -0.004702   0.000010  -0.000000  -0.000000
     9  H   -0.004723  -0.004702   0.588617  -0.000182   0.000002  -0.000006
    10  C   -0.009475   0.000010  -0.000182   5.202359   0.365709   0.367012
    11  H    0.000688  -0.000000   0.000002   0.365709   0.551392  -0.029001
    12  H    0.004459  -0.000000  -0.000006   0.367012  -0.029001   0.548852
    13  H    0.000062   0.000000   0.000003   0.369193  -0.028944  -0.025053
    14  C    0.000010  -0.010812  -0.000184  -0.000213   0.000002   0.000002
    15  H   -0.000000   0.000161   0.000003  -0.000003  -0.000001  -0.000000
    16  H   -0.000000   0.000194   0.000003   0.000006   0.000000  -0.000000
    17  H   -0.000000   0.006271  -0.000008   0.000002  -0.000000  -0.000000
    18  O   -0.000049  -0.000052   0.000002  -0.008040   0.000454   0.000502
    19  H    0.000003   0.000003  -0.000000   0.001131   0.000605  -0.000044
              13         14         15         16         17         18
     1  C    0.003052   0.000426   0.000033   0.000006  -0.000006   0.003788
     2  C   -0.029325   0.008420  -0.000007  -0.000035  -0.000099  -0.074065
     3  C   -0.005804  -0.054336  -0.003954  -0.004471   0.004383   0.284864
     4  C    0.000404   0.334895  -0.026641  -0.025127  -0.030686  -0.082438
     5  C   -0.000015  -0.059948   0.001486   0.000581  -0.002457   0.003465
     6  C   -0.000170   0.007263  -0.000215  -0.000171   0.000152  -0.000087
     7  H    0.000062   0.000010  -0.000000  -0.000000  -0.000000  -0.000049
     8  H    0.000000  -0.010812   0.000161   0.000194   0.006271  -0.000052
     9  H    0.000003  -0.000184   0.000003   0.000003  -0.000008   0.000002
    10  C    0.369193  -0.000213  -0.000003   0.000006   0.000002  -0.008040
    11  H   -0.028944   0.000002  -0.000001   0.000000  -0.000000   0.000454
    12  H   -0.025053   0.000002  -0.000000  -0.000000  -0.000000   0.000502
    13  H    0.528426   0.000000   0.000000  -0.000003  -0.000000   0.012260
    14  C    0.000000   5.181353   0.365773   0.371954   0.364101   0.001121
    15  H    0.000000   0.365773   0.558267  -0.029736  -0.028422   0.003211
    16  H   -0.000003   0.371954  -0.029736   0.534783  -0.027542   0.002526
    17  H   -0.000000   0.364101  -0.028422  -0.027542   0.556673   0.000464
    18  O    0.012260   0.001121   0.003211   0.002526   0.000464   8.293102
    19  H   -0.001157   0.000023   0.001622  -0.000446  -0.000030   0.240359
              19
     1  C   -0.000094
     2  C   -0.003032
     3  C   -0.023003
     4  C   -0.000668
     5  C   -0.000019
     6  C    0.000011
     7  H    0.000003
     8  H    0.000003
     9  H   -0.000000
    10  C    0.001131
    11  H    0.000605
    12  H   -0.000044
    13  H   -0.001157
    14  C    0.000023
    15  H    0.001622
    16  H   -0.000446
    17  H   -0.000030
    18  O    0.240359
    19  H    0.367362
 Mulliken charges:
               1
     1  C   -0.208125
     2  C    0.137605
     3  C    0.183832
     4  C    0.130674
     5  C   -0.209946
     6  C   -0.139382
     7  H    0.135099
     8  H    0.135567
     9  H    0.135640
    10  C   -0.525979
    11  H    0.166517
    12  H    0.162184
    13  H    0.177071
    14  C   -0.509849
    15  H    0.158423
    16  H    0.177479
    17  H    0.157206
    18  O   -0.681389
    19  H    0.417372
 Sum of Mulliken charges =  -0.00000
 Mulliken charges with hydrogens summed into heavy atoms:
               1
     1  C   -0.073026
     2  C    0.137605
     3  C    0.183832
     4  C    0.130674
     5  C   -0.074379
     6  C   -0.003742
    10  C   -0.020208
    14  C   -0.016741
    18  O   -0.264016
 Electronic spatial extent (au):  <R**2>=           1194.4734
 Charge=             -0.0000 electrons
 Dipole moment (field-independent basis, Debye):
    X=             -0.0112    Y=              0.0999    Z=              1.5697  Tot=              1.5729
 Quadrupole moment (field-independent basis, Debye-Ang):
   XX=            -48.7901   YY=            -50.6698   ZZ=            -54.1595
   XY=             -0.0147   XZ=             -0.1034   YZ=             -4.1752
 Traceless Quadrupole moment (field-independent basis, Debye-Ang):
   XX=              2.4164   YY=              0.5366   ZZ=             -2.9530
   XY=             -0.0147   XZ=             -0.1034   YZ=             -4.1752
 Octapole moment (field-independent basis, Debye-Ang**2):
  XXX=             -0.0062  YYY=             -3.9226  ZZZ=              2.2246  XYY=              0.0520
  XXY=              0.8491  XXZ=             -0.4204  XZZ=             -0.2556  YZZ=            -11.8466
  YYZ=             10.9552  XYZ=              0.3329
 Hexadecapole moment (field-independent basis, Debye-Ang**3):
 XXXX=           -863.4753 YYYY=           -589.6250 ZZZZ=            -68.6443 XXXY=              0.5354
 XXXZ=              0.6436 YYYX=              0.8341 YYYZ=            -27.3912 ZZZX=             -1.8839
 ZZZY=             -5.6116 XXYY=           -244.5094 XXZZ=           -159.4017 YYZZ=           -113.9052
 XXYZ=             -1.0041 YYXZ=              0.5963 ZZXY=             -1.1135
 N-N= 4.286914842123D+02 E-N=-1.754477556421D+03  KE= 3.824793097301D+02
 D1PCM: PCM CHGder 1st derivatives, ID1Alg=3 FixD1E=F DoIter=F DoCFld=F I1PDM=0.
 Calling FoFJK, ICntrl=      2127 FMM=F ISym2X=0 I1Cent= 0 IOpClX= 0 NMat=1 NMatS=1 NMatT=0.
 ***** Axes restored to original set *****
 -------------------------------------------------------------------
 Center     Atomic                   Forces (Hartrees/Bohr)
 Number     Number              X              Y              Z
 -------------------------------------------------------------------
      1        6          -0.007629064    0.000531811   -0.000774564
      2        6           0.014043612   -0.025312923   -0.002151582
      3        6           0.013604529   -0.000805414    0.007700278
      4        6           0.012264904    0.026415191   -0.001074246
      5        6          -0.006524761    0.000191226   -0.000703439
      6        6          -0.010947135   -0.000904067    0.000619327
      7        1           0.005054247    0.006605288   -0.000243259
      8        1           0.005219135   -0.006861716   -0.000023174
      9        1           0.007993012   -0.000018018   -0.000035069
     10        6          -0.016436017    0.031722058   -0.003457436
     11        1           0.004862941   -0.008644727    0.016674070
     12        1          -0.008023649   -0.013788289   -0.006406853
     13        1           0.014968635   -0.000504672   -0.005678660
     14        6          -0.019179688   -0.031668065   -0.000122802
     15        1           0.012779524    0.004186850    0.012655992
     16        1           0.012249942    0.003530508   -0.012573458
     17        1          -0.009046074    0.014032548    0.000510170
     18        8          -0.025861343    0.001661760   -0.016377224
     19        1           0.000607251   -0.000369348    0.011461928
 -------------------------------------------------------------------
 Cartesian Forces:  Max     0.031722058 RMS     0.011822954

 GradGradGradGradGradGradGradGradGradGradGradGradGradGradGradGradGradGrad
 Berny optimization.
 FormGI is forming the generalized inverse of G from B-inverse, IUseBI=4.
 Internal  Forces:  Max     0.025257797 RMS     0.006408419
 Search for a local minimum.
 Step number   1 out of a maximum of   98
 All quantities printed in internal units (Hartrees-Bohrs-Radians)
 Mixed Optimization -- RFO/linear search
 Second derivative matrix not updated -- first step.
 ITU=  0
     Eigenvalues ---    0.00237   0.00237   0.01295   0.01359   0.01417
     Eigenvalues ---    0.01999   0.02152   0.02154   0.02155   0.02155
     Eigenvalues ---    0.02156   0.02157   0.07243   0.07243   0.07243
     Eigenvalues ---    0.07243   0.16000   0.16000   0.16000   0.16000
     Eigenvalues ---    0.16000   0.16000   0.16000   0.16000   0.16000
     Eigenvalues ---    0.16000   0.22085   0.23479   0.24913   0.25000
     Eigenvalues ---    0.25000   0.25000   0.28519   0.28519   0.33709
     Eigenvalues ---    0.33725   0.33726   0.37230   0.37230   0.37230
     Eigenvalues ---    0.37230   0.37230   0.37230   0.40989   0.42379
     Eigenvalues ---    0.42406   0.46412   0.46453   0.46466   0.46497
     Eigenvalues ---    0.55473
 RFO step:  Lambda=-1.07490918D-02 EMin= 2.36824114D-03
 Linear search not attempted -- first point.
 Iteration  1 RMS(Cart)=  0.02503018 RMS(Int)=  0.00036351
 Iteration  2 RMS(Cart)=  0.00036217 RMS(Int)=  0.00016779
 Iteration  3 RMS(Cart)=  0.00000014 RMS(Int)=  0.00016779
 Variable       Old X    -DE/DX   Delta X   Delta X   Delta X     New X
                                 (Linear)    (Quad)   (Total)
    R1        2.63647   0.00383   0.00000   0.00810   0.00811   2.64458
    R2        2.63584   0.00065   0.00000   0.00091   0.00082   2.63666
    R3        2.07796  -0.00825   0.00000  -0.02370  -0.02370   2.05426
    R4        2.63562   0.00532   0.00000   0.01167   0.01177   2.64739
    R5        2.91018  -0.00992   0.00000  -0.03352  -0.03352   2.87666
    R6        2.63697   0.00466   0.00000   0.01027   0.01036   2.64734
    R7        2.70231  -0.02526   0.00000  -0.06005  -0.06005   2.64226
    R8        2.63584   0.00300   0.00000   0.00628   0.00627   2.64211
    R9        2.91018  -0.01019   0.00000  -0.03442  -0.03442   2.87576
   R10        2.63643   0.00166   0.00000   0.00302   0.00292   2.63935
   R11        2.07825  -0.00855   0.00000  -0.02459  -0.02459   2.05366
   R12        2.07795  -0.00799   0.00000  -0.02297  -0.02297   2.05498
   R13        2.02201   0.01902   0.00000   0.04966   0.04966   2.07167
   R14        2.02201   0.01694   0.00000   0.04423   0.04423   2.06624
   R15        2.02201   0.01572   0.00000   0.04104   0.04104   2.06304
   R16        2.02201   0.01792   0.00000   0.04679   0.04679   2.06880
   R17        2.02201   0.01747   0.00000   0.04561   0.04561   2.06761
   R18        2.02201   0.01655   0.00000   0.04321   0.04321   2.06522
   R19        1.81414   0.01101   0.00000   0.01947   0.01947   1.83361
    A1        2.09437   0.00326   0.00000   0.01272   0.01270   2.10707
    A2        2.09435  -0.00275   0.00000  -0.01290  -0.01289   2.08146
    A3        2.09447  -0.00051   0.00000   0.00018   0.00019   2.09466
    A4        2.09455  -0.00845   0.00000  -0.03194  -0.03178   2.06277
    A5        2.09406   0.00441   0.00000   0.01667   0.01658   2.11064
    A6        2.09458   0.00404   0.00000   0.01526   0.01517   2.10975
    A7        2.09429   0.00949   0.00000   0.03763   0.03747   2.13176
    A8        2.09462  -0.00310   0.00000  -0.01253  -0.01305   2.08157
    A9        2.09427  -0.00638   0.00000  -0.02512  -0.02562   2.06865
   A10        2.09429  -0.00800   0.00000  -0.03037  -0.03022   2.06407
   A11        2.09407   0.00171   0.00000   0.00639   0.00631   2.10038
   A12        2.09483   0.00629   0.00000   0.02398   0.02390   2.11873
   A13        2.09448   0.00310   0.00000   0.01181   0.01177   2.10625
   A14        2.09459  -0.00268   0.00000  -0.01252  -0.01250   2.08209
   A15        2.09411  -0.00042   0.00000   0.00071   0.00073   2.09485
   A16        2.09440   0.00060   0.00000   0.00013  -0.00000   2.09439
   A17        2.09453  -0.00032   0.00000  -0.00017  -0.00011   2.09442
   A18        2.09426  -0.00029   0.00000   0.00003   0.00009   2.09434
   A19        1.91063   0.00399   0.00000   0.02126   0.02113   1.93176
   A20        1.91063   0.00220   0.00000   0.01370   0.01353   1.92417
   A21        1.91063   0.00297   0.00000   0.01871   0.01851   1.92914
   A22        1.91063  -0.00364   0.00000  -0.02399  -0.02409   1.88654
   A23        1.91063  -0.00380   0.00000  -0.02384  -0.02400   1.88663
   A24        1.91063  -0.00172   0.00000  -0.00584  -0.00607   1.90457
   A25        1.91063   0.00474   0.00000   0.02675   0.02654   1.93717
   A26        1.91063   0.00361   0.00000   0.02038   0.02020   1.93083
   A27        1.91063   0.00186   0.00000   0.01262   0.01241   1.92304
   A28        1.91063  -0.00488   0.00000  -0.03206  -0.03224   1.87840
   A29        1.91063  -0.00299   0.00000  -0.01602  -0.01623   1.89440
   A30        1.91063  -0.00233   0.00000  -0.01168  -0.01185   1.89878
   A31        1.91114  -0.00590   0.00000  -0.03453  -0.03453   1.87661
    D1        0.00056  -0.00002   0.00000   0.00088   0.00083   0.00140
    D2        3.14078  -0.00021   0.00000  -0.00689  -0.00683   3.13394
    D3       -3.14112  -0.00002   0.00000   0.00057   0.00051  -3.14061
    D4       -0.00091  -0.00020   0.00000  -0.00720  -0.00715  -0.00806
    D5        0.00026   0.00023   0.00000   0.00692   0.00690   0.00716
    D6        3.14140  -0.00001   0.00000  -0.00068  -0.00068   3.14073
    D7       -3.14124   0.00023   0.00000   0.00724   0.00722  -3.13402
    D8       -0.00010  -0.00001   0.00000  -0.00037  -0.00035  -0.00045
    D9       -0.00099  -0.00023   0.00000  -0.00909  -0.00927  -0.01027
   D10        3.14093   0.00139   0.00000   0.04358   0.04394  -3.09832
   D11       -3.14120  -0.00005   0.00000  -0.00132  -0.00162   3.14037
   D12        0.00072   0.00157   0.00000   0.05135   0.05160   0.05231
   D13       -1.55380   0.00001   0.00000  -0.00876  -0.00868  -1.56248
   D14        0.54060  -0.00066   0.00000  -0.01673  -0.01673   0.52387
   D15        2.63499   0.00040   0.00000  -0.00404  -0.00397   2.63103
   D16        1.58642  -0.00019   0.00000  -0.01656  -0.01659   1.56983
   D17       -2.60237  -0.00085   0.00000  -0.02454  -0.02463  -2.62701
   D18       -0.50798   0.00020   0.00000  -0.01185  -0.01187  -0.51985
   D19        0.00060   0.00027   0.00000   0.00948   0.00965   0.01025
   D20       -3.14153   0.00038   0.00000   0.01351   0.01362  -3.12791
   D21       -3.14132  -0.00134   0.00000  -0.04319  -0.04318   3.09868
   D22       -0.00026  -0.00124   0.00000  -0.03915  -0.03921  -0.03947
   D23       -1.56649  -0.00053   0.00000  -0.01465  -0.01395  -1.58044
   D24        1.57543   0.00108   0.00000   0.03802   0.03732   1.61275
   D25        0.00023  -0.00006   0.00000  -0.00164  -0.00158  -0.00136
   D26       -3.14158  -0.00002   0.00000  -0.00073  -0.00070   3.14090
   D27       -3.14083  -0.00016   0.00000  -0.00568  -0.00559   3.13676
   D28        0.00054  -0.00013   0.00000  -0.00476  -0.00471  -0.00417
   D29       -1.02885   0.00029   0.00000  -0.00225  -0.00226  -1.03111
   D30        1.06555  -0.00057   0.00000  -0.01265  -0.01267   1.05287
   D31       -3.12324  -0.00008   0.00000  -0.00674  -0.00678  -3.13003
   D32        2.11221   0.00040   0.00000   0.00177   0.00182   2.11403
   D33       -2.07658  -0.00047   0.00000  -0.00862  -0.00860  -2.08518
   D34        0.01781   0.00002   0.00000  -0.00272  -0.00270   0.01511
   D35       -0.00066  -0.00019   0.00000  -0.00655  -0.00653  -0.00718
   D36        3.14138   0.00004   0.00000   0.00105   0.00105  -3.14075
   D37        3.14116  -0.00022   0.00000  -0.00746  -0.00741   3.13374
   D38        0.00001   0.00001   0.00000   0.00014   0.00016   0.00018
         Item               Value     Threshold  Converged?
 Maximum Force            0.025258     0.000450     NO 
 RMS     Force            0.006408     0.000300     NO 
 Maximum Displacement     0.098581     0.001800     NO 
 RMS     Displacement     0.025108     0.001200     NO 
 Predicted change in Energy=-5.613303D-03
 GradGradGradGradGradGradGradGradGradGradGradGradGradGradGradGradGradGrad

                          Input orientation:                          
 ---------------------------------------------------------------------
 Center     Atomic      Atomic             Coordinates (Angstroms)
 Number     Number       Type             X           Y           Z
 ---------------------------------------------------------------------
      1          6           0        0.483715    0.072179   -0.004628
      2          6           0        1.883068    0.056649    0.000975
      3          6           0        2.558438    1.283983    0.013607
      4          6           0        1.878575    2.508856    0.008496
      5          6           0        0.480570    2.490060    0.002764
      6          6           0       -0.215841    1.279387    0.000541
      7          1           0       -0.058055   -0.870224   -0.013489
      8          1           0       -0.063870    3.430592   -0.000596
      9          1           0       -1.303277    1.277711   -0.004718
     10          6           0        2.650956   -1.257736    0.005358
     11          1           0        2.834804   -1.595317    1.032036
     12          1           0        2.076912   -2.033051   -0.509327
     13          1           0        3.616270   -1.138886   -0.490511
     14          6           0        2.653800    3.818376    0.004717
     15          1           0        3.304567    3.891413    0.882027
     16          1           0        3.287405    3.888675   -0.884514
     17          1           0        1.963232    4.665374    0.012799
     18          8           0        3.955825    1.295727   -0.033347
     19          1           0        4.278995    1.280371    0.881431
 ---------------------------------------------------------------------
                    Distance matrix (angstroms):
                    1          2          3          4          5
     1  C    0.000000
     2  C    1.399450   0.000000
     3  C    2.402764   1.400940   0.000000
     4  C    2.807703   2.452223   1.400912   0.000000
     5  C    2.417894   2.808647   2.402555   1.398142   0.000000
     6  C    1.395262   2.429097   2.774314   2.428628   1.396683
     7  H    1.087069   2.151108   3.389304   3.894766   3.403218
     8  H    3.402763   3.895390   3.388898   2.150063   1.086750
     9  H    2.155609   3.412305   3.861763   3.411755   2.156840
    10  C    2.542776   1.522261   2.543416   3.844971   4.330885
    11  H    3.063141   2.167459   3.066585   4.336617   4.826191
    12  H    2.687935   2.159821   3.392351   4.575631   4.823804
    13  H    3.393473   2.162140   2.691363   4.071193   4.821326
    14  C    4.329358   3.839874   2.536202   1.521785   2.547028
    15  H    4.830104   4.183578   2.847727   2.169786   3.272896
    16  H    4.816691   4.176203   2.849988   2.164756   3.259096
    17  H    4.825630   4.609437   3.433376   2.158183   2.632561
    18  O    3.681499   2.415122   1.398225   2.405910   3.674933
    19  H    4.080315   2.830753   1.927031   2.834291   4.082087
                    6          7          8          9         10
     6  C    0.000000
     7  H    2.155440   0.000000
     8  H    2.156566   4.300839   0.000000
     9  H    1.087450   2.482797   2.484158   0.000000
    10  C    3.828256   2.736652   5.417632   4.697293   0.000000
    11  H    4.316751   3.160304   5.893080   5.143235   1.096279
    12  H    4.060656   2.481151   5.890089   4.758304   1.093408
    13  H    4.557878   3.714888   5.887577   5.502534   1.091715
    14  C    3.831621   5.416407   2.745202   4.702502   5.076113
    15  H    4.471350   5.897658   3.512513   5.371218   5.263980
    16  H    4.456954   5.881999   3.496025   5.354020   5.261415
    17  H    4.026589   5.893143   2.373607   4.706022   5.962906
    18  O    4.171836   4.561028   4.551557   5.259211   2.867813
    19  H    4.580340   4.923002   4.925636   5.652170   3.140064
                   11         12         13         14         15
    11  H    0.000000
    12  H    1.772516   0.000000
    13  H    1.771205   1.780311   0.000000
    14  C    5.513276   5.902223   5.074056   0.000000
    15  H    5.508845   6.208242   5.223497   1.094762   0.000000
    16  H    5.826849   6.055815   5.053687   1.094134   1.766626
    17  H    6.402712   6.719705   6.056012   1.092865   1.775881
    18  O    3.278698   3.851964   2.500327   2.839098   2.828362
    19  H    3.221482   4.214516   2.859061   3.138686   2.786942
                   16         17         18         19
    16  H    0.000000
    17  H    1.778164   0.000000
    18  O    2.809742   3.914981   0.000000
    19  H    3.302281   4.192317   0.970306   0.000000
 Stoichiometry    C8H10O
 Framework group  C1[X(C8H10O)]
 Deg. of freedom    51
 Full point group                 C1      NOp   1
 Largest Abelian subgroup         C1      NOp   1
 Largest concise Abelian subgroup C1      NOp   1
                         Standard orientation:                         
 ---------------------------------------------------------------------
 Center     Atomic      Atomic             Coordinates (Angstroms)
 Number     Number       Type             X           Y           Z
 ---------------------------------------------------------------------
      1          6           0       -1.220557    1.414388    0.003575
      2          6           0       -1.226413    0.015024   -0.010804
      3          6           0        0.005566   -0.651950   -0.008272
      4          6           0        1.225708    0.036374   -0.004125
      5          6           0        1.197247    1.434154    0.010117
      6          6           0       -0.018212    2.122134    0.018288
      7          1           0       -2.166687    1.949698    0.002800
      8          1           0        2.133991    1.985080    0.014186
      9          1           0       -0.027406    3.209497    0.028561
     10          6           0       -2.535457   -0.761923   -0.016902
     11          1           0       -2.871277   -0.962743    1.007170
     12          1           0       -3.314961   -0.185965   -0.523050
     13          1           0       -2.410169   -1.719212   -0.526550
     14          6           0        2.540553   -0.729640   -0.019459
     15          1           0        2.618497   -1.392348    0.848439
     16          1           0        2.614813   -1.349982   -0.917675
     17          1           0        3.382761   -0.033415   -0.001828
     18          8           0        0.026946   -2.048410   -0.075183
     19          1           0        0.014253   -2.384707    0.834892
 ---------------------------------------------------------------------
 Rotational constants (GHZ):           2.2569434           1.7450779           0.9994839
 Standard basis: 6-31G(d) (6D, 7F)
 There are   155 symmetry adapted cartesian basis functions of A   symmetry.
 There are   155 symmetry adapted basis functions of A   symmetry.
   155 basis functions,   292 primitive gaussians,   155 cartesian basis functions
    33 alpha electrons       33 beta electrons
       nuclear repulsion energy       429.2917945110 Hartrees.
 NAtoms=   19 NActive=   19 NUniq=   19 SFac= 1.00D+00 NAtFMM=   60 NAOKFM=F Big=F
 Integral buffers will be    131072 words long.
 Raffenetti 2 integral format.
 Two-electron integral symmetry is turned on.
 ------------------------------------------------------------------------------
 Polarizable Continuum Model (PCM)
 =================================
 Model                : PCM.
 Atomic radii         : SMD-Coulomb.
 Polarization charges : Total charges.
 Charge compensation  : None.
 Solution method      : On-the-fly selection.
 Cavity type          : VdW (van der Waals Surface) (Alpha=1.000).
 Cavity algorithm     : GePol (No added spheres)
                        Default sphere list used, NSphG=   19.
                        Lebedev-Laikov grids with approx.  5.0 points / Ang**2.
                        Smoothing algorithm: York/Karplus (Gamma=1.0000).
                        Polarization charges: spherical gaussians, with
                                              point-specific exponents (IZeta= 3).
                        Self-potential: point-specific (ISelfS= 7).
                        Self-field    : sphere-specific E.n sum rule (ISelfD= 2).
 1st derivatives      : Analytical E(r).r(x)/FMM algorithm (CHGder, D1EAlg=3).
                        Cavity 1st derivative terms included.
 Solvent              : Toluene, Eps=   2.374100 Eps(inf)=   2.238315
 ------------------------------------------------------------------------------
 Spheres list:
 ISph  on   Nord     Re0    Alpha      Xe            Ye            Ze
    1   C      1    1.8500  1.000     -1.220557      1.414388      0.003575
    2   C      2    1.8500  1.000     -1.226413      0.015024     -0.010804
    3   C      3    1.8500  1.000      0.005566     -0.651950     -0.008272
    4   C      4    1.8500  1.000      1.225708      0.036374     -0.004125
    5   C      5    1.8500  1.000      1.197247      1.434154      0.010117
    6   C      6    1.8500  1.000     -0.018212      2.122134      0.018288
    7   H      7    1.2000  1.000     -2.166687      1.949698      0.002800
    8   H      8    1.2000  1.000      2.133991      1.985080      0.014186
    9   H      9    1.2000  1.000     -0.027406      3.209497      0.028561
   10   C     10    1.8500  1.000     -2.535457     -0.761923     -0.016902
   11   H     11    1.2000  1.000     -2.871277     -0.962743      1.007170
   12   H     12    1.2000  1.000     -3.314961     -0.185965     -0.523050
   13   H     13    1.2000  1.000     -2.410169     -1.719212     -0.526550
   14   C     14    1.8500  1.000      2.540553     -0.729640     -0.019459
   15   H     15    1.2000  1.000      2.618497     -1.392348      0.848439
   16   H     16    1.2000  1.000      2.614813     -1.349982     -0.917675
   17   H     17    1.2000  1.000      3.382761     -0.033415     -0.001828
   18   O     18    2.2940  1.000      0.026946     -2.048410     -0.075183
   19   H     19    1.2000  1.000      0.014253     -2.384707      0.834892
 ------------------------------------------------------------------------------
 ------------------------------------------------------------------------------
 Atomic radii for non-electrostatic terms: SMD-CDS.
 ------------------------------------------------------------------------------
 Nuclear repulsion after PCM non-electrostatic terms =      429.2855036137 Hartrees.
 One-electron integrals computed using PRISM.
 NBasis=   155 RedAO= T EigKep=  3.69D-04  NBF=   155
 NBsUse=   155 1.00D-06 EigRej= -1.00D+00 NBFU=   155
 Initial guess from the checkpoint file:  "MeHbz.chk"
 B after Tr=     0.000000   -0.000000   -0.000000
         Rot=    0.999993    0.000224   -0.000091   -0.003862 Ang=   0.44 deg.
 ExpMin= 1.61D-01 ExpMax= 5.48D+03 ExpMxC= 8.25D+02 IAcc=3 IRadAn=         5 AccDes= 0.00D+00
 Harris functional with IExCor=  402 and IRadAn=       5 diagonalized for initial guess.
 HarFok:  IExCor=  402 AccDes= 0.00D+00 IRadAn=         5 IDoV= 1 UseB2=F ITyADJ=14
 ICtDFT=  3500011 ScaDFX=  1.000000  1.000000  1.000000  1.000000
 FoFCou: FMM=F IPFlag=           0 FMFlag=      100000 FMFlg1=           0
         NFxFlg=           0 DoJE=T BraDBF=F KetDBF=T FulRan=T
         wScrn=  0.000000 ICntrl=       500 IOpCl=  0 I1Cent=   200000004 NGrid=           0
         NMat0=    1 NMatS0=      1 NMatT0=    0 NMatD0=    1 NMtDS0=    0 NMtDT0=    0
 Petite list used in FoFCou.
 Requested convergence on RMS density matrix=1.00D-08 within 128 cycles.
 Requested convergence on MAX density matrix=1.00D-06.
 Requested convergence on             energy=1.00D-06.
 No special actions if energy rises.
 Inv3:  Mode=1 IEnd=     6518028.
 Iteration    1 A*A^-1 deviation from unit magnitude is 3.33D-15 for    319.
 Iteration    1 A*A^-1 deviation from orthogonality  is 1.71D-15 for    820    252.
 Iteration    1 A^-1*A deviation from unit magnitude is 2.66D-15 for    319.
 Iteration    1 A^-1*A deviation from orthogonality  is 1.10D-15 for    522    330.
 Error on total polarization charges =  0.02061
 SCF Done:  E(RB3LYP) =  -386.104558136     A.U. after   11 cycles
            NFock= 11  Conv=0.44D-08     -V/T= 2.0097
 SMD-CDS (non-electrostatic) energy       (kcal/mol) =      -3.95
 (included in total energy above)
 D1PCM: PCM CHGder 1st derivatives, ID1Alg=3 FixD1E=F DoIter=F DoCFld=F I1PDM=0.
 Calling FoFJK, ICntrl=      2127 FMM=F ISym2X=0 I1Cent= 0 IOpClX= 0 NMat=1 NMatS=1 NMatT=0.
 ***** Axes restored to original set *****
 -------------------------------------------------------------------
 Center     Atomic                   Forces (Hartrees/Bohr)
 Number     Number              X              Y              Z
 -------------------------------------------------------------------
      1        6          -0.001511899    0.002802606    0.000137089
      2        6           0.003293075   -0.007551023   -0.000475796
      3        6           0.003752253   -0.000952712   -0.000813831
      4        6           0.002099262    0.008250248   -0.000511795
      5        6          -0.000933237   -0.002287485    0.000304298
      6        6          -0.000046852   -0.000297362   -0.000131051
      7        1          -0.000176251   -0.000379038   -0.000141966
      8        1          -0.000233127    0.000447057    0.000037631
      9        1           0.000269884    0.000032374   -0.000087550
     10        6          -0.004765266    0.009340438   -0.001093463
     11        1           0.001150088   -0.001654356    0.000821377
     12        1           0.000250951   -0.001618912    0.000466956
     13        1           0.000983655   -0.001157589    0.000054470
     14        6          -0.005764478   -0.009219767   -0.000281921
     15        1           0.001501321    0.001462604    0.000362650
     16        1           0.001505286    0.001206394   -0.000089427
     17        1           0.000421621    0.001414898    0.000094246
     18        8          -0.004366391    0.000559916    0.000515473
     19        1           0.002570107   -0.000398290    0.000832610
 -------------------------------------------------------------------
 Cartesian Forces:  Max     0.009340438 RMS     0.002811068

 GradGradGradGradGradGradGradGradGradGradGradGradGradGradGradGradGradGrad
 Berny optimization.
 Using GEDIIS/GDIIS optimizer.
 FormGI is forming the generalized inverse of G from B-inverse, IUseBI=4.
 Internal  Forces:  Max     0.005610447 RMS     0.001246731
 Search for a local minimum.
 Step number   2 out of a maximum of   98
 All quantities printed in internal units (Hartrees-Bohrs-Radians)
 Mixed Optimization -- RFO/linear search
 Update second derivatives using D2CorX and points    1    2
 DE= -5.95D-03 DEPred=-5.61D-03 R= 1.06D+00
 TightC=F SS=  1.41D+00  RLast= 2.11D-01 DXNew= 5.0454D-01 6.3316D-01
 Trust test= 1.06D+00 RLast= 2.11D-01 DXMaxT set to 5.05D-01
 ITU=  1  0
 Use linear search instead of GDIIS.
     Eigenvalues ---    0.00236   0.00237   0.01293   0.01337   0.01396
     Eigenvalues ---    0.02040   0.02153   0.02154   0.02155   0.02156
     Eigenvalues ---    0.02156   0.02165   0.06992   0.07013   0.07029
     Eigenvalues ---    0.07053   0.14751   0.15999   0.16000   0.16000
     Eigenvalues ---    0.16000   0.16000   0.16000   0.16000   0.16000
     Eigenvalues ---    0.16490   0.22005   0.23448   0.24492   0.24965
     Eigenvalues ---    0.24998   0.25127   0.26887   0.28519   0.33709
     Eigenvalues ---    0.33720   0.34027   0.37189   0.37230   0.37230
     Eigenvalues ---    0.37230   0.37230   0.38193   0.40792   0.42494
     Eigenvalues ---    0.42901   0.46311   0.46442   0.46469   0.46547
     Eigenvalues ---    0.55311
 RFO step:  Lambda=-6.91944421D-04 EMin= 2.36497235D-03
 Quartic linear search produced a step of  0.13031.
 Iteration  1 RMS(Cart)=  0.02998517 RMS(Int)=  0.00103361
 Iteration  2 RMS(Cart)=  0.00106549 RMS(Int)=  0.00003887
 Iteration  3 RMS(Cart)=  0.00000104 RMS(Int)=  0.00003886
 Iteration  4 RMS(Cart)=  0.00000000 RMS(Int)=  0.00003886
 Variable       Old X    -DE/DX   Delta X   Delta X   Delta X     New X
                                 (Linear)    (Quad)   (Total)
    R1        2.64458   0.00162   0.00106   0.00331   0.00437   2.64895
    R2        2.63666  -0.00101   0.00011  -0.00287  -0.00278   2.63389
    R3        2.05426   0.00042  -0.00309   0.00321   0.00012   2.05439
    R4        2.64739   0.00151   0.00153   0.00312   0.00467   2.65206
    R5        2.87666  -0.00544  -0.00437  -0.01891  -0.02327   2.85338
    R6        2.64734   0.00248   0.00135   0.00559   0.00696   2.65430
    R7        2.64226  -0.00184  -0.00782  -0.00049  -0.00831   2.63395
    R8        2.64211   0.00104   0.00082   0.00204   0.00286   2.64496
    R9        2.87576  -0.00561  -0.00449  -0.01952  -0.02400   2.85176
   R10        2.63935  -0.00082   0.00038  -0.00254  -0.00218   2.63717
   R11        2.05366   0.00050  -0.00320   0.00357   0.00036   2.05402
   R12        2.05498  -0.00027  -0.00299   0.00086  -0.00213   2.05285
   R13        2.07167   0.00147   0.00647   0.00067   0.00714   2.07880
   R14        2.06624   0.00080   0.00576  -0.00097   0.00479   2.07104
   R15        2.06304   0.00072   0.00535  -0.00096   0.00439   2.06743
   R16        2.06880   0.00128   0.00610   0.00030   0.00640   2.07520
   R17        2.06761   0.00102   0.00594  -0.00039   0.00555   2.07317
   R18        2.06522   0.00083   0.00563  -0.00078   0.00485   2.07006
   R19        1.83361   0.00165   0.00254   0.00188   0.00442   1.83803
    A1        2.10707   0.00097   0.00165   0.00310   0.00475   2.11182
    A2        2.08146  -0.00052  -0.00168  -0.00130  -0.00298   2.07848
    A3        2.09466  -0.00045   0.00002  -0.00180  -0.00178   2.09288
    A4        2.06277  -0.00087  -0.00414  -0.00096  -0.00508   2.05769
    A5        2.11064   0.00103   0.00216   0.00307   0.00521   2.11584
    A6        2.10975  -0.00016   0.00198  -0.00217  -0.00021   2.10953
    A7        2.13176  -0.00030   0.00488  -0.00312   0.00174   2.13350
    A8        2.08157   0.00031  -0.00170   0.00182   0.00005   2.08161
    A9        2.06865  -0.00002  -0.00334   0.00131  -0.00210   2.06655
   A10        2.06407  -0.00055  -0.00394   0.00041  -0.00351   2.06056
   A11        2.10038  -0.00043   0.00082  -0.00271  -0.00190   2.09847
   A12        2.11873   0.00099   0.00311   0.00232   0.00542   2.12415
   A13        2.10625   0.00066   0.00153   0.00167   0.00320   2.10944
   A14        2.08209  -0.00035  -0.00163  -0.00047  -0.00210   2.08000
   A15        2.09485  -0.00031   0.00010  -0.00121  -0.00111   2.09374
   A16        2.09439   0.00009  -0.00000  -0.00108  -0.00110   2.09329
   A17        2.09442  -0.00001  -0.00001   0.00078   0.00077   2.09519
   A18        2.09434  -0.00008   0.00001   0.00031   0.00033   2.09468
   A19        1.93176   0.00159   0.00275   0.00847   0.01116   1.94292
   A20        1.92417   0.00132   0.00176   0.00859   0.01027   1.93444
   A21        1.92914   0.00133   0.00241   0.00859   0.01090   1.94004
   A22        1.88654  -0.00169  -0.00314  -0.01128  -0.01447   1.87208
   A23        1.88663  -0.00163  -0.00313  -0.01030  -0.01349   1.87314
   A24        1.90457  -0.00108  -0.00079  -0.00503  -0.00594   1.89863
   A25        1.93717   0.00171   0.00346   0.00928   0.01266   1.94983
   A26        1.93083   0.00156   0.00263   0.00919   0.01174   1.94257
   A27        1.92304   0.00114   0.00162   0.00787   0.00939   1.93243
   A28        1.87840  -0.00194  -0.00420  -0.01275  -0.01702   1.86138
   A29        1.89440  -0.00143  -0.00212  -0.00844  -0.01065   1.88375
   A30        1.89878  -0.00121  -0.00154  -0.00621  -0.00784   1.89094
   A31        1.87661   0.00392  -0.00450   0.03030   0.02580   1.90241
    D1        0.00140   0.00004   0.00011   0.00280   0.00289   0.00429
    D2        3.13394  -0.00006  -0.00089  -0.00386  -0.00475   3.12920
    D3       -3.14061  -0.00006   0.00007  -0.00192  -0.00186   3.14071
    D4       -0.00806  -0.00015  -0.00093  -0.00858  -0.00951  -0.01757
    D5        0.00716  -0.00008   0.00090  -0.00513  -0.00424   0.00292
    D6        3.14073  -0.00007  -0.00009  -0.00356  -0.00365   3.13708
    D7       -3.13402   0.00002   0.00094  -0.00038   0.00056  -3.13346
    D8       -0.00045   0.00003  -0.00005   0.00119   0.00115   0.00070
    D9       -0.01027  -0.00001  -0.00121  -0.00125  -0.00247  -0.01273
   D10       -3.09832   0.00009   0.00573  -0.00163   0.00415  -3.09417
   D11        3.14037   0.00008  -0.00021   0.00538   0.00512  -3.13770
   D12        0.05231   0.00018   0.00672   0.00500   0.01174   0.06405
   D13       -1.56248  -0.00014  -0.00113  -0.07448  -0.07559  -1.63807
   D14        0.52387  -0.00038  -0.00218  -0.07760  -0.07978   0.44409
   D15        2.63103   0.00000  -0.00052  -0.07267  -0.07315   2.55788
   D16        1.56983  -0.00024  -0.00216  -0.08132  -0.08349   1.48634
   D17       -2.62701  -0.00048  -0.00321  -0.08443  -0.08768  -2.71469
   D18       -0.51985  -0.00010  -0.00155  -0.07950  -0.08105  -0.60090
   D19        0.01025   0.00004   0.00126   0.00201   0.00329   0.01353
   D20       -3.12791  -0.00000   0.00177  -0.00148   0.00031  -3.12760
   D21        3.09868  -0.00005  -0.00563   0.00241  -0.00322   3.09546
   D22       -0.03947  -0.00009  -0.00511  -0.00108  -0.00619  -0.04567
   D23       -1.58044   0.00030  -0.00182   0.02763   0.02591  -1.55453
   D24        1.61275   0.00040   0.00486   0.02740   0.03217   1.64491
   D25       -0.00136  -0.00008  -0.00021  -0.00433  -0.00452  -0.00588
   D26        3.14090  -0.00002  -0.00009  -0.00138  -0.00146   3.13944
   D27        3.13676  -0.00005  -0.00073  -0.00081  -0.00152   3.13524
   D28       -0.00417   0.00002  -0.00061   0.00215   0.00154  -0.00263
   D29       -1.03111   0.00008  -0.00029  -0.01580  -0.01608  -1.04719
   D30        1.05287  -0.00022  -0.00165  -0.01975  -0.02141   1.03146
   D31       -3.13003   0.00002  -0.00088  -0.01643  -0.01732   3.13584
   D32        2.11403   0.00005   0.00024  -0.01940  -0.01915   2.09488
   D33       -2.08518  -0.00026  -0.00112  -0.02335  -0.02448  -2.10965
   D34        0.01511  -0.00002  -0.00035  -0.02003  -0.02038  -0.00527
   D35       -0.00718   0.00010  -0.00085   0.00592   0.00508  -0.00210
   D36       -3.14075   0.00009   0.00014   0.00435   0.00449  -3.13626
   D37        3.13374   0.00004  -0.00097   0.00295   0.00199   3.13574
   D38        0.00018   0.00003   0.00002   0.00138   0.00140   0.00158
         Item               Value     Threshold  Converged?
 Maximum Force            0.005610     0.000450     NO 
 RMS     Force            0.001247     0.000300     NO 
 Maximum Displacement     0.142274     0.001800     NO 
 RMS     Displacement     0.030037     0.001200     NO 
 Predicted change in Energy=-4.327822D-04
 GradGradGradGradGradGradGradGradGradGradGradGradGradGradGradGradGradGrad

                          Input orientation:                          
 ---------------------------------------------------------------------
 Center     Atomic      Atomic             Coordinates (Angstroms)
 Number     Number       Type             X           Y           Z
 ---------------------------------------------------------------------
      1          6           0        0.481982    0.074925   -0.013963
      2          6           0        1.883569    0.054847   -0.004504
      3          6           0        2.557777    1.285545    0.015195
      4          6           0        1.876022    2.513578    0.010344
      5          6           0        0.476599    2.489722    0.001596
      6          6           0       -0.218697    1.279784   -0.009225
      7          1           0       -0.059985   -0.867345   -0.030059
      8          1           0       -0.069362    3.429598   -0.000221
      9          1           0       -1.304951    1.277326   -0.020945
     10          6           0        2.647780   -1.247380    0.006428
     11          1           0        2.902794   -1.552889    1.031979
     12          1           0        2.050317   -2.053681   -0.434040
     13          1           0        3.585626   -1.159515   -0.550030
     14          6           0        2.647109    3.810785    0.013951
     15          1           0        3.288041    3.900050    0.901178
     16          1           0        3.307098    3.884523   -0.859286
     17          1           0        1.964484    4.667454    0.003462
     18          8           0        3.950706    1.300288   -0.032630
     19          1           0        4.299179    1.256523    0.874390
 ---------------------------------------------------------------------
                    Distance matrix (angstroms):
                    1          2          3          4          5
     1  C    0.000000
     2  C    1.401763   0.000000
     3  C    2.403202   1.403410   0.000000
     4  C    2.809086   2.458787   1.404593   0.000000
     5  C    2.414853   2.812155   2.404482   1.399653   0.000000
     6  C    1.393792   2.433108   2.776588   2.431147   1.395530
     7  H    1.087134   2.151394   3.389641   3.896203   3.399827
     8  H    3.399706   3.899090   3.391027   2.150284   1.086942
     9  H    2.153821   3.414877   3.862906   3.412900   2.155071
    10  C    2.537635   1.509945   2.534539   3.839327   4.322035
    11  H    3.099049   2.167471   3.034731   4.316729   4.826055
    12  H    2.677145   2.158286   3.407309   4.592136   4.827927
    13  H    3.382871   2.160849   2.711876   4.090034   4.825688
    14  C    4.318009   3.832806   2.526820   1.509084   2.540959
    15  H    4.831462   4.192658   2.855501   2.170181   3.271464
    16  H    4.817561   4.174147   2.842690   2.164192   3.270828
    17  H    4.825913   4.613323   3.433576   2.155703   2.637484
    18  O    3.678846   2.413497   1.393827   2.403796   3.672240
    19  H    4.093451   2.837543   1.942045   2.863294   4.110312
                    6          7          8          9         10
     6  C    0.000000
     7  H    2.153087   0.000000
     8  H    2.155014   4.297057   0.000000
     9  H    1.086320   2.479846   2.481811   0.000000
    10  C    3.821451   2.734548   5.408977   4.690306   0.000000
    11  H    4.341871   3.221173   5.892734   5.179178   1.100055
    12  H    4.054735   2.454378   5.894708   4.745954   1.095945
    13  H    4.551430   3.694078   5.892468   5.489614   1.094038
    14  C    3.823525   5.405109   2.743122   4.694508   5.058171
    15  H    4.471223   5.899537   3.507990   5.368851   5.263700
    16  H    4.465255   5.882612   3.513606   5.363887   5.246008
    17  H    4.030230   5.893522   2.380931   4.709859   5.954172
    18  O    4.169519   4.558978   4.549281   5.255720   2.861774
    19  H    4.603533   4.932662   4.956949   5.675238   3.122500
                   11         12         13         14         15
    11  H    0.000000
    12  H    1.768253   0.000000
    13  H    1.767415   1.780494   0.000000
    14  C    5.465414   5.911753   5.089477   0.000000
    15  H    5.468095   6.225887   5.271978   1.098150   0.000000
    16  H    5.771117   6.084620   5.061180   1.097072   1.760636
    17  H    6.374240   6.735906   6.073551   1.095431   1.773867
    18  O    3.220579   3.875785   2.540003   2.829158   2.840754
    19  H    3.141261   4.210323   2.894024   3.161320   2.830433
                   16         17         18         19
    16  H    0.000000
    17  H    1.777618   0.000000
    18  O    2.788524   3.909500   0.000000
    19  H    3.300946   4.224188   0.972643   0.000000
 Stoichiometry    C8H10O
 Framework group  C1[X(C8H10O)]
 Deg. of freedom    51
 Full point group                 C1      NOp   1
 Largest Abelian subgroup         C1      NOp   1
 Largest concise Abelian subgroup C1      NOp   1
                         Standard orientation:                         
 ---------------------------------------------------------------------
 Center     Atomic      Atomic             Coordinates (Angstroms)
 Number     Number       Type             X           Y           Z
 ---------------------------------------------------------------------
      1          6           0       -1.216199    1.416576    0.001975
      2          6           0       -1.229442    0.014958   -0.013174
      3          6           0        0.004560   -0.653454   -0.008034
      4          6           0        1.229251    0.034291   -0.003587
      5          6           0        1.198572    1.433518    0.012332
      6          6           0       -0.014753    2.122959    0.016394
      7          1           0       -2.161127    1.954119   -0.002519
      8          1           0        2.135777    1.984025    0.018057
      9          1           0       -0.022517    3.209226    0.023787
     10          6           0       -2.527911   -0.755699   -0.012829
     11          1           0       -2.829839   -1.030194    1.008745
     12          1           0       -3.338108   -0.154545   -0.440952
     13          1           0       -2.436756   -1.683177   -0.585888
     14          6           0        2.530195   -0.730375   -0.016386
     15          1           0        2.624595   -1.386357    0.859232
     16          1           0        2.605151   -1.374543   -0.901256
     17          1           0        3.383510   -0.043482   -0.016746
     18          8           0        0.025964   -2.045238   -0.080384
     19          1           0       -0.014039   -2.409810    0.820461
 ---------------------------------------------------------------------
 Rotational constants (GHZ):           2.2573743           1.7511598           1.0014189
 Standard basis: 6-31G(d) (6D, 7F)
 There are   155 symmetry adapted cartesian basis functions of A   symmetry.
 There are   155 symmetry adapted basis functions of A   symmetry.
   155 basis functions,   292 primitive gaussians,   155 cartesian basis functions
    33 alpha electrons       33 beta electrons
       nuclear repulsion energy       429.5631888321 Hartrees.
 NAtoms=   19 NActive=   19 NUniq=   19 SFac= 1.00D+00 NAtFMM=   60 NAOKFM=F Big=F
 Integral buffers will be    131072 words long.
 Raffenetti 2 integral format.
 Two-electron integral symmetry is turned on.
 ------------------------------------------------------------------------------
 Polarizable Continuum Model (PCM)
 =================================
 Model                : PCM.
 Atomic radii         : SMD-Coulomb.
 Polarization charges : Total charges.
 Charge compensation  : None.
 Solution method      : On-the-fly selection.
 Cavity type          : VdW (van der Waals Surface) (Alpha=1.000).
 Cavity algorithm     : GePol (No added spheres)
                        Default sphere list used, NSphG=   19.
                        Lebedev-Laikov grids with approx.  5.0 points / Ang**2.
                        Smoothing algorithm: York/Karplus (Gamma=1.0000).
                        Polarization charges: spherical gaussians, with
                                              point-specific exponents (IZeta= 3).
                        Self-potential: point-specific (ISelfS= 7).
                        Self-field    : sphere-specific E.n sum rule (ISelfD= 2).
 1st derivatives      : Analytical E(r).r(x)/FMM algorithm (CHGder, D1EAlg=3).
                        Cavity 1st derivative terms included.
 Solvent              : Toluene, Eps=   2.374100 Eps(inf)=   2.238315
 ------------------------------------------------------------------------------
 Spheres list:
 ISph  on   Nord     Re0    Alpha      Xe            Ye            Ze
    1   C      1    1.8500  1.000     -1.216199      1.416576      0.001975
    2   C      2    1.8500  1.000     -1.229442      0.014958     -0.013174
    3   C      3    1.8500  1.000      0.004560     -0.653454     -0.008034
    4   C      4    1.8500  1.000      1.229251      0.034291     -0.003587
    5   C      5    1.8500  1.000      1.198572      1.433518      0.012332
    6   C      6    1.8500  1.000     -0.014753      2.122959      0.016394
    7   H      7    1.2000  1.000     -2.161127      1.954119     -0.002519
    8   H      8    1.2000  1.000      2.135777      1.984025      0.018057
    9   H      9    1.2000  1.000     -0.022517      3.209226      0.023787
   10   C     10    1.8500  1.000     -2.527911     -0.755699     -0.012829
   11   H     11    1.2000  1.000     -2.829839     -1.030194      1.008745
   12   H     12    1.2000  1.000     -3.338108     -0.154545     -0.440952
   13   H     13    1.2000  1.000     -2.436756     -1.683177     -0.585888
   14   C     14    1.8500  1.000      2.530195     -0.730375     -0.016386
   15   H     15    1.2000  1.000      2.624595     -1.386357      0.859232
[...]
 8203,0.00780890,-0.00376212,0.63895149,-0.00321387,0.00224807,-0.00262
 599,0.00405429,0.00165071,0.00405692,-0.00600602,0.00267588,-0.0696160
 4,0.03888290,-0.00060411,0.16500039,0.05980814,-0.02346074,0.00392497,
 -0.04479466,-0.02598123,-0.00303024,-0.03165321,0.07564720,-0.00241766
 ,-0.33434056,-0.03794250,-0.02011086,0.68490707,0.02702569,-0.06053121
 ,0.00201018,-0.03176998,-0.01881143,-0.00229996,0.02731781,0.04141075,
 0.00195812,0.02783131,-0.12592813,0.00207248,-0.01957748,0.73022950,0.
 00389018,-0.00166109,0.00631763,-0.00302704,-0.00187777,-0.00308170,-0
 .00238479,0.00547222,0.00072928,-0.02015713,-0.00271155,-0.05880709,0.
 04041130,-0.00181562,0.13203734,-0.18495793,0.12974601,-0.00939517,-0.
 03076627,0.02473495,-0.00259903,0.00396468,0.00253712,0.00042842,-0.02
 685800,-0.02783048,-0.00226705,-0.17775641,-0.12395742,-0.00868396,0.7
 4375340,0.06565379,-0.28788501,0.00493214,0.07270588,0.03411954,0.0052
 6393,0.00234833,-0.07252700,0.00021762,-0.07425443,0.03209767,-0.00541
 979,-0.05969583,-0.29034842,-0.00418190,-0.00122969,0.67643851,-0.0093
 4902,0.00958962,-0.05764442,-0.00263216,0.00177718,0.00453295,0.000429
 86,0.00023405,-0.00193673,-0.00223650,-0.00204404,0.00444931,-0.008729
 36,-0.00885372,-0.05777256,0.04530489,-0.00046439,0.12401050,-0.123282
 71,-0.11587856,-0.00640005,-0.01208258,-0.02810249,-0.00105201,-0.0045
 9492,0.00228129,-0.00081340,-0.00088993,0.00062106,-0.00000118,-0.0011
 9978,0.00293171,-0.00059071,0.01212292,0.01548850,0.00073322,0.1281566
 6,-0.11674943,-0.27150313,-0.00833747,0.00151286,0.00072213,0.00011166
 ,0.00082317,0.00124515,0.00006306,0.00057650,0.00033643,0.00004123,0.0
 0449637,-0.00274498,0.00033301,-0.01577485,-0.01903007,-0.00113293,0.1
 2523820,0.28894559,-0.00640278,-0.00827496,-0.03472111,-0.00106839,-0.
 00204088,0.00255792,-0.00081231,0.00016897,0.00650949,-0.00000174,0.00
 004494,-0.00088056,-0.00059135,0.00022028,0.00685358,0.00075485,0.0011
 3997,0.00194861,0.00742389,0.00893673,0.02550360,-0.00089534,-0.002910
 04,-0.00055273,-0.00090290,-0.00066009,-0.00001033,-0.00421689,-0.0023
 5288,-0.00081085,-0.01298189,0.02788748,-0.00118056,-0.13154483,0.1205
 8568,-0.00708306,0.01201989,-0.01454028,0.00073896,0.00046268,-0.00080
 762,0.00000517,0.13701797,-0.00442520,-0.00301637,-0.00031562,-0.00056
 818,0.00032437,-0.00004196,-0.00108588,0.00111650,-0.00007534,-0.00176
 190,0.00177073,-0.00012728,0.12150490,-0.26311004,0.00897409,0.0167924
 7,-0.01900793,0.00123422,0.00085764,-0.00118594,0.00006351,-0.13045140
 ,0.28007373,-0.00055171,-0.00020471,0.00669530,-0.00001056,-0.00004851
 ,-0.00075473,-0.00081251,-0.00016702,0.00690653,-0.00116217,0.00202843
 ,0.00292604,-0.00708175,0.00890425,-0.03564744,0.00071825,-0.00104209,
 0.00203527,0.00000385,-0.00005764,0.00040115,0.00820971,-0.00964138,0.
 02578689,-0.01215499,-0.00291458,-0.00092227,0.00089253,0.00294348,-0.
 00043608,0.00088030,-0.00001016,0.00011393,0.00104229,-0.00278574,-0.0
 0041431,-0.01124773,0.00239264,-0.00086163,-0.33810001,-0.00441536,-0.
 02234276,0.00089768,0.00021024,0.00034324,0.00089500,-0.00021113,0.000
 33556,0.35866815,0.02879865,0.00500779,0.00209098,0.00153983,-0.004398
 53,0.00012015,0.00011101,-0.00150597,0.00000853,-0.00140156,-0.0046333
 6,-0.00009401,-0.02923937,0.00418815,-0.00212892,-0.00452638,-0.059625
 10,-0.00030992,-0.00056981,0.00114012,-0.00004487,0.00057896,0.0011500
 9,0.00003885,0.00477491,0.05817287,-0.00094460,-0.00021390,0.00048622,
 -0.00043433,0.00022181,0.00682786,0.00011416,-0.00000093,-0.00067895,-
 0.00041553,-0.00019464,0.00673549,-0.00083884,0.00017221,0.00051767,-0
 .02234377,-0.00030364,-0.03244403,0.00034385,0.00001210,-0.00379877,0.
 00033494,-0.00001840,-0.00369376,0.02433379,0.00032416,0.02577522,-0.0
 1834055,0.03066463,-0.00157319,-0.12078427,0.04860434,-0.00368273,0.01
 039315,-0.00693359,0.00055781,-0.00162549,-0.00482893,-0.00057407,-0.0
 0161363,0.00048017,-0.00005591,-0.00309908,-0.00213145,-0.00078134,0.0
 0124807,0.00119888,0.00040554,0.00016725,0.00005798,0.00007819,-0.0005
 1021,0.00107794,-0.00007939,0.54829677,0.00796988,-0.00137512,0.000584
 49,0.05617054,-0.17795416,0.00417234,0.00897843,-0.03148649,0.00068264
 ,-0.00363259,-0.00164587,-0.00025725,-0.00096825,-0.00055066,-0.000070
 91,-0.00197390,0.00239692,-0.00013874,-0.00203649,0.00088176,-0.000152
 54,0.00005214,0.00004347,0.00000305,-0.00041468,0.00045092,-0.00002998
 ,0.04652303,0.52407592,-0.00155244,0.00223251,0.00283063,-0.00369368,0
 .00363046,-0.07099048,0.00054343,-0.00047994,0.00284439,-0.00057337,-0
 .00034681,0.00626031,-0.00005574,0.00003466,-0.00085202,-0.00077986,-0
 .00015058,0.00759998,0.00040791,0.00008383,-0.00430458,0.00007795,0.00
 000359,-0.00089999,-0.00007845,0.00007834,0.00056799,0.00088810,0.0034
 1551,0.53670818,0.00029746,0.00246921,-0.00059943,-0.01139881,0.003900
 63,-0.01277396,-0.00160818,-0.00196280,0.00040117,-0.00030107,0.000161
 00,0.00012054,-0.00011411,-0.00002445,-0.00004634,-0.00061597,0.000389
 71,0.00104305,0.00015844,0.00006557,-0.00062636,-0.00000023,0.00007275
 ,-0.00007504,-0.00016635,0.00018520,0.00005008,-0.11497552,0.00701718,
 -0.11206502,0.12460994,-0.00083365,-0.00242261,0.00063772,0.01602456,-
 0.00223008,0.02420844,0.00318628,-0.00011590,0.00026176,-0.00014126,0.
 00073735,-0.00116999,0.00078972,0.00002257,0.00023874,0.00056576,-0.00
 066640,-0.00099256,0.00012484,0.00020111,0.00030986,-0.00000352,-0.000
 03157,0.00009745,0.00017269,-0.00019597,-0.00014126,0.00959602,-0.0501
 1363,0.01664644,-0.01264857,0.05279040,0.00093691,0.00002904,-0.000337
 72,0.00042064,0.00218187,0.00386824,-0.00250444,-0.00059857,0.00076065
 ,0.00023743,0.00005357,-0.00028686,-0.00014951,-0.00010390,-0.00002698
 ,0.00009135,0.00026416,-0.00014036,0.00007172,0.00000252,0.00005009,0.
 00000920,0.00001909,0.00005841,-0.00000582,0.00001654,0.00002385,-0.11
 216299,0.01394211,-0.23237887,0.12428732,-0.01701751,0.25145397,0.0005
 0531,0.00207813,0.00004016,0.01183498,0.01603929,0.00092164,-0.0034734
 6,0.00283123,-0.00032729,0.00082929,0.00047816,0.00004081,-0.00002372,
 0.00004882,-0.00000656,0.00031074,-0.00001754,0.00003348,-0.00000818,-
 0.00046284,-0.00002079,-0.00000772,-0.00002736,-0.00000306,0.00003613,
 -0.00005400,0.00000654,-0.15232785,-0.13459050,-0.00754660,-0.01045856
 ,-0.01230449,0.00020726,0.16487439,-0.00258690,0.00165059,-0.00018926,
 -0.01728315,-0.02330782,-0.00124200,0.00404508,-0.00323372,0.00029762,
 -0.00150122,-0.00073568,-0.00010833,0.00015874,0.00029212,0.00001148,0
 .00029437,-0.00021859,0.00002147,0.00105438,0.00058314,0.00007659,0.00
 007926,0.00002603,0.00000575,0.00000910,0.00001441,0.00000062,-0.13056
 923,-0.21456488,-0.00939496,0.00203688,0.00280085,-0.00065522,0.141043
 76,0.23392481,0.00004349,0.00014988,-0.00006392,0.00094801,0.00118676,
 -0.00091324,-0.00032771,0.00020945,0.00097275,0.00004241,0.00003585,0.
 00026336,-0.00000648,0.00000348,0.00006609,0.00003329,-0.00000134,-0.0
 0014689,-0.00002173,-0.00003383,0.00027958,-0.00000314,-0.00000199,0.0
 0003425,0.00000653,-0.00000399,-0.00005311,-0.00754908,-0.00968727,-0.
 04804022,-0.01817087,-0.02317153,-0.00035022,0.00854639,0.01014200,0.0
 4680590,0.00033207,0.00244987,0.00069428,-0.01284721,0.00419037,0.0103
 1463,-0.00186240,-0.00202955,-0.00078089,-0.00024904,0.00016684,-0.000
 11458,-0.00014034,-0.00003916,0.00002967,-0.00044370,0.00042212,-0.001
 08768,0.00007687,0.00006609,0.00063001,-0.00000837,0.00007486,0.000065
 11,-0.00015605,0.00018562,-0.00007662,-0.14955134,0.00917368,0.1241089
 8,0.01274466,-0.00144273,-0.01343835,-0.01282840,0.00194479,0.01634644
 ,0.16287990,-0.00073327,-0.00242477,-0.00074888,0.01935828,-0.00226472
 ,-0.02161865,0.00319341,-0.00011483,0.00020357,-0.00030906,0.00073859,
 0.00113595,0.00081578,0.00002245,-0.00012187,0.00041639,-0.00066467,0.
 00106447,0.00016831,0.00020077,-0.00028850,0.00001057,-0.00003172,-0.0
 0009695,0.00015045,-0.00019587,0.00016501,0.01211876,-0.05017178,-0.01
 532635,-0.00154551,-0.00047253,0.00075316,-0.01553767,0.00283537,0.021
 13881,-0.01520873,0.05285311,-0.00083843,0.00033267,-0.00037220,-0.002
 89985,-0.00158349,0.00535585,0.00211791,0.00030902,0.00101074,-0.00023
 211,-0.00003087,-0.00034016,0.00013210,0.00009926,-0.00000067,-0.00013
 664,-0.00020465,-0.00031412,-0.00006811,0.00000687,0.00013222,-0.00001
 898,-0.00000823,0.00006677,-0.00002073,0.00001079,0.00001326,0.1242023
 6,-0.01302249,-0.19764970,0.01852657,-0.00100515,-0.02195021,-0.002006
 31,0.00094245,0.00197713,-0.13716853,0.01527518,0.21303206,-0.00160743
 ,-0.00085976,-0.00005460,-0.00233641,0.00482851,-0.00058583,0.01326422
 ,0.00791282,0.00065755,-0.11857542,-0.04899715,-0.00338722,-0.01779736
 ,-0.03092469,-0.00157295,-0.00290579,0.00216435,-0.00078727,0.00016348
 ,-0.00005585,0.00007289,0.00121535,-0.00126178,0.00041672,-0.00048515,
 -0.00104447,-0.00006801,0.00090813,0.00103724,0.00007012,-0.00002145,-
 0.00002140,-0.00001806,-0.00018685,0.00044044,-0.00000510,-0.00002624,
 -0.00001372,0.00001418,0.56073016,0.00067242,-0.00057799,0.00004856,0.
 00358096,-0.00122940,0.00026564,-0.01044495,-0.03136621,-0.00073430,-0
 .05517104,-0.18593614,-0.00392865,-0.00807904,-0.00174019,-0.00058330,
 0.00219668,0.00223173,0.00016320,-0.00002955,0.00004826,-0.00000268,0.
 00215681,0.00091935,0.00015339,0.00043603,0.00047248,0.00003186,-0.000
 84830,-0.00056596,-0.00006148,-0.00003967,0.00006529,0.00001606,0.0001
 9602,-0.00024150,0.00001439,-0.00003686,0.00006518,-0.00002175,-0.0461
 8669,0.52495084,-0.00005422,-0.00006253,-0.00085145,-0.00058512,0.0003
 5407,0.00562803,0.00067058,0.00060277,0.00418828,-0.00338148,-0.003482
 42,-0.07174205,-0.00159164,-0.00224553,0.00404049,-0.00078863,0.000161
 90,0.00785361,0.00007304,-0.00000468,-0.00083480,0.00041469,-0.0000951
 9,-0.00448011,-0.00006899,-0.00007599,0.00045456,0.00007112,0.00007540
 ,-0.00006083,-0.00001875,0.00005182,0.00000037,-0.00000473,0.00003199,
 -0.00012280,0.00001488,-0.00005434,0.00000532,0.00122949,-0.00333253,0
 .54445805,-0.00003751,0.00007350,-0.00003810,-0.00037204,-0.00027519,0
 .00023029,-0.00111507,0.00178475,0.00036041,-0.01128374,-0.00444719,-0
 .01260025,0.00034707,-0.00228519,-0.00047730,-0.00061501,-0.00037316,0
 .00099760,0.00000664,-0.00006178,-0.00008957,0.00017265,-0.00006385,-0
 .00061073,-0.00014110,-0.00017616,0.00004092,-0.00002075,0.00003346,-0
 .00001756,0.00004251,-0.00002506,0.00000565,-0.00000521,-0.00002042,-0
 .00001625,0.00003029,-0.00002673,0.00000331,-0.11902050,-0.00702465,-0
 .11844805,0.12905273,-0.00074777,-0.00010518,-0.00025240,0.00009367,0.
 00072799,0.00108616,-0.00271137,-0.00037426,-0.00020718,-0.01659353,-0
 .00262621,-0.02487277,0.00048766,-0.00257896,-0.00044249,-0.00051430,-
 0.00054440,0.00109649,0.00000873,-0.00003304,-0.00007829,-0.00013254,0
 .00015145,-0.00035215,-0.00017663,-0.00020435,0.00010818,0.00002598,0.
 00009953,-0.00005985,0.00003767,-0.00003879,0.00002756,0.00000586,0.00
 000346,-0.00002112,0.00003910,-0.00005962,-0.00001570,-0.00857503,-0.0
 5014799,-0.01592880,0.01343821,0.05244902,-0.00011738,0.00007080,-0.00
 004334,0.00016053,-0.00003676,-0.00016298,-0.00205734,0.00036731,0.000
 84451,0.00051685,-0.00181358,0.00319026,0.00095273,0.00002913,-0.00032
 646,0.00008389,-0.00021579,-0.00016524,0.00000088,-0.00001748,0.000050
 05,0.00004644,0.00001717,0.00006267,-0.00000635,-0.00001279,0.00002660
 ,-0.00000950,0.00001046,-0.00000419,0.00001140,-0.00002282,0.00002112,
 0.00001178,-0.00001467,-0.00000544,0.00001147,-0.00001793,-0.00001793,
 -0.11740128,-0.01511881,-0.23477822,0.12938667,0.01618897,0.25341268,-
 0.00005997,0.00008285,0.00003566,-0.00031182,-0.00027783,-0.00025209,-
 0.00131699,0.00181819,-0.00067823,-0.01270997,-0.00465168,0.01029113,0
 .00040139,-0.00225528,0.00058605,-0.00045060,-0.00040203,-0.00103945,-
 0.00000519,-0.00006353,0.00008168,0.00008937,-0.00005986,0.00061504,-0
 .00013266,-0.00017618,-0.00006395,-0.00002431,0.00003466,0.00001457,0.
 00003140,-0.00002904,0.00000394,-0.00000587,-0.00002229,0.00001623,0.0
 0004450,-0.00002808,-0.00000218,-0.15507881,-0.00895942,0.13006976,0.0
 1220341,0.00150365,-0.01355544,0.16856123,-0.00077700,-0.00010479,0.00
 014179,0.00025011,0.00072680,-0.00106298,-0.00271050,-0.00037586,-0.00
 018488,-0.02001194,-0.00259811,0.02222737,0.00041876,-0.00257598,0.000
 51128,-0.00035001,-0.00054682,-0.00115897,-0.00000274,-0.00003292,0.00
 007884,-0.00018206,0.00015186,0.00032939,-0.00015910,-0.00020440,-0.00
 013233,0.00001704,0.00009964,0.00006290,0.00003637,-0.00005958,0.00002
 123,0.00000270,0.00000350,0.00002172,0.00004131,-0.00003880,-0.0000217
 4,-0.01061361,-0.05010931,0.01433165,0.00168426,-0.00002583,-0.0010082
 6,0.01544767,0.05241112,0.00011608,-0.00005972,-0.00002109,-0.00018259
 ,-0.00000444,-0.00022175,0.00174510,-0.00010417,0.00104631,-0.00280835
 ,0.00116322,0.00458555,-0.00084738,-0.00035575,-0.00038077,-0.00012469
 ,0.00016051,-0.00032799,-0.00000895,0.00000851,0.00006169,-0.00004236,
 -0.00002614,0.00014516,-0.00001668,-0.00001245,0.00001838,0.00000655,-
 0.00000563,-0.00000080,-0.00000428,0.00001392,-0.00001906,-0.00001184,
 0.00001156,-0.00000484,-0.00000808,0.00001904,0.00001913,0.12902386,0.
 01375128,-0.19874516,0.01861902,0.00121134,-0.02255644,-0.14176690,-0.
 01387009,0.21392870,0.00004046,-0.00006480,-0.00000045,0.00070966,-0.0
 0045146,0.00002731,-0.00293863,-0.00275074,-0.00028570,0.01129784,-0.0
 1521499,0.00091550,0.00072900,-0.00160142,0.00006543,0.00033213,0.0000
 3631,0.00003730,-0.00000534,0.00001971,-0.00000305,0.00015814,0.000302
 75,-0.00001106,0.00003955,0.00006529,0.00000590,-0.00013803,-0.0001676
 3,-0.00000028,-0.00000097,-0.00000740,0.00001360,0.00005844,-0.0000629
 4,0.00000579,-0.00000095,-0.00000426,-0.00001336,-0.15834623,0.1326468
 3,-0.00791389,-0.01049562,0.01203828,0.00086399,-0.01263772,0.01517651
 ,-0.00278162,0.17092780,-0.00019099,0.00026102,-0.00001400,0.00165105,
 -0.00060976,0.00012105,-0.00431126,-0.00330761,-0.00031093,0.01863147,
 -0.02324444,0.00136473,0.00284568,0.00187167,0.00020573,-0.00030777,-0
 .00022492,-0.00002206,-0.00008684,0.00001867,-0.00000636,-0.00118652,0
 .00040725,-0.00008664,-0.00002593,0.00000554,-0.00000194,-0.00044108,-
 0.00028705,-0.00003200,0.00003393,0.00000119,0.00001354,0.00007058,-0.
 00017102,0.00000527,0.00003555,0.00000116,-0.00000850,0.12903101,-0.20
 674833,0.00944839,-0.00224488,0.00278328,0.00088042,-0.00207381,0.0027
 5514,-0.00119497,-0.14096635,0.22610852,-0.00000054,-0.00000483,0.0000
 4637,0.00002565,-0.00003181,0.00034446,-0.00028484,-0.00019711,0.00100
 038,0.00089504,-0.00108810,-0.00113885,0.00006273,-0.00011764,-0.00015
 560,0.00003763,0.00000258,-0.00018065,-0.00000303,0.00000145,0.0000368
 4,-0.00001035,0.00002158,0.00030899,0.00000593,0.00000471,-0.00004138,
 -0.00000007,-0.00001207,-0.00013252,-0.00001344,0.00002135,-0.00000264
 ,0.00000570,-0.00000447,-0.00002021,0.00001363,-0.00002220,-0.00000258
 ,-0.00791184,0.00970999,-0.05088314,-0.01746868,0.02264799,0.00039189,
 0.01557071,-0.02067692,0.00256158,0.00907607,-0.01032790,0.04758682,0.
 00335273,-0.00174414,-0.00028913,-0.04362254,-0.00949114,-0.00369507,-
 0.29862192,-0.04235111,-0.01871266,-0.04558529,0.01229031,-0.00377964,
 0.00573377,0.00156785,0.00005912,-0.00640286,-0.00147894,-0.00037550,-
 0.00159635,-0.00025530,-0.00012693,-0.00113873,0.00038692,-0.00009850,
 -0.00033277,-0.00001845,0.00002614,0.00149135,0.00755941,0.00043782,0.
 00164911,-0.00195952,0.00128946,0.00030685,0.00067201,-0.00002577,0.00
 183686,-0.00198682,-0.00107231,0.00012812,-0.00434454,0.00029278,0.001
 22877,0.00171543,0.00090674,0.00137073,0.00162953,-0.00071687,0.000057
 61,-0.00041824,-0.00000642,0.48199661,0.00373853,-0.00821680,0.0002824
 7,-0.04031787,0.00117518,-0.00292368,0.00811053,-0.11157941,0.00063599
 ,0.04603913,0.00288164,0.00334716,-0.00283912,-0.00895927,-0.00019718,
 -0.00020634,0.00425045,-0.00001894,-0.00179122,0.00014552,-0.00013040,
 0.00189477,0.00009675,0.00013804,0.00000490,0.00039101,-0.00000027,-0.
 00366133,-0.00117169,-0.00027131,0.00032260,0.00145884,-0.00036955,-0.
 00031525,0.00046401,-0.00002199,0.00026450,0.00145998,0.00041028,0.003
 04861,0.00020472,0.00021762,-0.00011298,0.00041483,0.00050821,-0.00003
 961,0.00041595,-0.00051956,0.00093345,0.00031506,0.00006799,-0.1372418
 7,0.54718341,-0.00029279,-0.00011628,0.00734435,-0.00367726,-0.0006871
 9,0.00708583,-0.01873960,-0.00302382,-0.04192330,-0.00380484,0.0008946
 0,0.00610148,0.00006026,0.00012303,0.00491538,-0.00037650,-0.00010967,
 -0.00124704,-0.00012520,-0.00001867,0.00013858,-0.00009943,0.00002817,
 0.00020418,0.00002648,-0.00000206,-0.00069432,0.00044739,0.00054494,-0
 .00458053,0.00019340,-0.00032291,0.00035487,-0.00002459,0.00004875,0.0
 0064690,0.00001827,0.00003308,0.00016909,0.00028844,-0.00031851,-0.003
 85209,0.00024720,-0.00045976,0.00005567,-0.00005476,0.00070222,-0.0000
 8455,-0.00000747,-0.00003054,0.00014978,0.03320137,-0.01030082,0.02838
 459,-0.00078396,0.00108348,-0.00002974,0.00119018,0.00136623,0.0000715
 7,-0.02579382,0.04714982,-0.00164329,-0.00713751,-0.00312465,-0.000655
 58,0.00029990,0.00225341,-0.00009437,0.00046788,-0.00067029,0.00004269
 ,0.00037152,0.00002360,0.00002600,-0.00050139,-0.00013373,-0.00002532,
 0.00007537,-0.00011103,0.00000872,0.00050630,-0.00076562,-0.00018589,0
 .00012770,-0.00104321,0.00070467,0.00056969,0.00026734,0.00013756,0.00
 016889,-0.00083809,-0.00051887,-0.00002182,-0.00072104,0.00001915,0.00
 002247,0.00005694,0.00019391,0.00003190,0.00010271,-0.00019003,0.00021
 286,-0.00004560,0.00000611,-0.10185206,0.12216859,-0.00728037,0.132045
 90,0.00021530,-0.00066290,0.00001603,-0.00555639,0.00053815,-0.0004040
 7,0.00045783,0.00163246,0.00003059,-0.00249346,0.00184851,-0.00018142,
 0.00061876,-0.00015793,0.00004604,-0.00061261,-0.00024548,-0.00004444,
 -0.00027697,0.00006143,-0.00002022,-0.00001873,0.00015198,-0.00000150,
 0.00001889,-0.00002984,0.00000135,-0.00095087,0.00183913,-0.00006496,-
 0.00050769,-0.00173056,0.00140429,0.00051511,-0.00012508,0.00003543,-0
 .00029767,-0.00173729,-0.00146397,0.00009118,-0.00029483,0.00000642,0.
 00012305,0.00010906,0.00020641,0.00015162,0.00010839,-0.00018646,0.000
 07285,0.00006461,0.00000539,0.17546862,-0.43093019,0.01301544,-0.16701
 884,0.42956038,-0.00002958,0.00007879,-0.00038682,0.00007762,0.0000992
 7,0.00018572,-0.00161380,0.00341903,-0.00370140,-0.00065654,-0.0002266
 3,0.00186849,-0.00009328,0.00016504,0.00157383,0.00004273,-0.00004897,
 -0.00011020,0.00002603,0.00000171,0.00001641,-0.00002527,-0.00000989,-
 0.00015559,0.00000861,-0.00000806,-0.00004278,-0.00018879,-0.00005406,
 0.00308324,-0.00024007,0.00135624,-0.00109865,0.00013802,0.00001863,-0
 .00132505,0.00042734,-0.00149262,-0.00113400,0.00001890,-0.00005237,-0
 .00027806,-0.00012458,0.00032380,0.00000481,0.00012824,-0.00031221,-0.
 00000406,0.00000599,-0.00000330,0.00013047,-0.00731463,0.00914593,-0.0
 0316886,0.00941306,-0.01240035,0.00454252\\0.00000698,-0.00000847,0.00
 000267,-0.00000090,-0.00001357,-0.00000997,-0.00002495,0.00002327,0.00
 001006,0.00000717,-0.00001026,0.00000227,-0.00001541,0.00000159,-0.000
 01068,0.00000512,0.00000683,0.00000524,0.00000160,0.00000281,-0.000003
 88,-0.00000243,-0.00000451,0.00000321,-0.00000046,0.00000124,-0.000000
 43,-0.00000200,-0.00000577,0.00003936,-0.00000318,0.00000929,-0.000015
 56,0.00000167,0.00000643,-0.00000855,0.00000840,-0.00000248,-0.0000085
 9,0.00000567,-0.00000398,0.00000200,-0.00000306,0.00000193,-0.00000219
 ,-0.00000333,-0.00000046,0.00000019,-0.00000155,0.00000320,0.00000075,
 0.00001746,-0.00000987,-0.00000565,0.00000319,0.00000279,-0.00000025\\
 \@
 The archive entry for this job was punched.


 THE BEST WAY TO CONVINCE A FOOL THAT HE IS WRONG 
 IS TO LET HIM HAVE HIS OWN WAY.

                                         JOSH BILLINGS
 Job cpu time:       0 days  0 hours 20 minutes 43.1 seconds.
 Elapsed time:       0 days  0 hours  4 minutes 19.9 seconds.
 File lengths (MBytes):  RWF=     99 Int=      0 D2E=      0 Chk=     11 Scr=      1
 Normal termination of Gaussian 16 at Tue Nov 16 10:14:53 2021.
