 Entering Gaussian System, Link 0=/home/rong/g16/g16
 Input=/home/rong/g16/092321/tbutbuBz.gjf
 Output=/home/rong/g16/092321/tbutbuBz.log
 Initial command:
 /home/rong/g16/l1.exe "/tmp/Gau-72883.inp" -scrdir="/tmp/"
 Default is to use a total of   8 processors:
                                8 via shared-memory
                                1 via Linda
 Entering Link 1 = /home/rong/g16/l1.exe PID=     72885.
  
 Copyright (c) 1988-2019, Gaussian, Inc.  All Rights Reserved.
  
 This is part of the Gaussian(R) 16 program.  It is based on
 the Gaussian(R) 09 system (copyright 2009, Gaussian, Inc.),
 the Gaussian(R) 03 system (copyright 2003, Gaussian, Inc.),
 the Gaussian(R) 98 system (copyright 1998, Gaussian, Inc.),
 the Gaussian(R) 94 system (copyright 1995, Gaussian, Inc.),
 the Gaussian 92(TM) system (copyright 1992, Gaussian, Inc.),
 the Gaussian 90(TM) system (copyright 1990, Gaussian, Inc.),
 the Gaussian 88(TM) system (copyright 1988, Gaussian, Inc.),
 the Gaussian 86(TM) system (copyright 1986, Carnegie Mellon
 University), and the Gaussian 82(TM) system (copyright 1983,
 Carnegie Mellon University). Gaussian is a federally registered
 trademark of Gaussian, Inc.
  
 This software contains proprietary and confidential information,
 including trade secrets, belonging to Gaussian, Inc.
  
 This software is provided under written license and may be
 used, copied, transmitted, or stored only in accord with that
 written license.
  
 The following legend is applicable only to US Government
 contracts under FAR:
  
                    RESTRICTED RIGHTS LEGEND
  
 Use, reproduction and disclosure by the US Government is
 subject to restrictions as set forth in subparagraphs (a)
 and (c) of the Commercial Computer Software - Restricted
 Rights clause in FAR 52.227-19.
  
 Gaussian, Inc.
 340 Quinnipiac St., Bldg. 40, Wallingford CT 06492
  
  
 ---------------------------------------------------------------
 Warning -- This program may not be used in any manner that
 competes with the business of Gaussian, Inc. or will provide
 assistance to any competitor of Gaussian, Inc.  The licensee
 of this program is prohibited from giving any competitor of
 Gaussian, Inc. access to this program.  By using this program,
 the user acknowledges that Gaussian, Inc. is engaged in the
 business of creating and licensing software in the field of
 computational chemistry and represents and warrants to the
 licensee that it is not a competitor of Gaussian, Inc. and that
 it will not use this program in any manner prohibited above.
 ---------------------------------------------------------------
  

 Cite this work as:
 Gaussian 16, Revision C.01,
 M. J. Frisch, G. W. Trucks, H. B. Schlegel, G. E. Scuseria, 
 M. A. Robb, J. R. Cheeseman, G. Scalmani, V. Barone, 
 G. A. Petersson, H. Nakatsuji, X. Li, M. Caricato, A. V. Marenich, 
 J. Bloino, B. G. Janesko, R. Gomperts, B. Mennucci, H. P. Hratchian, 
 J. V. Ortiz, A. F. Izmaylov, J. L. Sonnenberg, D. Williams-Young, 
 F. Ding, F. Lipparini, F. Egidi, J. Goings, B. Peng, A. Petrone, 
 T. Henderson, D. Ranasinghe, V. G. Zakrzewski, J. Gao, N. Rega, 
 G. Zheng, W. Liang, M. Hada, M. Ehara, K. Toyota, R. Fukuda, 
 J. Hasegawa, M. Ishida, T. Nakajima, Y. Honda, O. Kitao, H. Nakai, 
 T. Vreven, K. Throssell, J. A. Montgomery, Jr., J. E. Peralta, 
 F. Ogliaro, M. J. Bearpark, J. J. Heyd, E. N. Brothers, K. N. Kudin, 
 V. N. Staroverov, T. A. Keith, R. Kobayashi, J. Normand, 
 K. Raghavachari, A. P. Rendell, J. C. Burant, S. S. Iyengar, 
 J. Tomasi, M. Cossi, J. M. Millam, M. Klene, C. Adamo, R. Cammi, 
 J. W. Ochterski, R. L. Martin, K. Morokuma, O. Farkas, 
 J. B. Foresman, and D. J. Fox, Gaussian, Inc., Wallingford CT, 2019.
 
 ******************************************
 Gaussian 16:  ES64L-G16RevC.01  3-Jul-2019
                23-Sep-2021 
 ******************************************
 %mem=16GB
 %chk=tbutbuBz.chk
 %nprocshared=8
 Will use up to    8 processors via shared memory.
 ----------------------------------------------------
 # opt freq b3lyp/6-31g(d) scrf=(smd,solvent=toluene)
 ----------------------------------------------------
 1/18=20,19=15,26=3,38=1/1,3;
 2/9=110,12=2,17=6,18=5,40=1/2;
 3/5=1,6=6,7=1,11=2,25=1,30=1,70=32201,71=1,72=13,74=-5/1,2,3;
 4//1;
 5/5=2,38=5,53=13/2;
 6/7=2,8=2,9=2,10=2,28=1/1;
 7//1,2,3,16;
 1/18=20,19=15,26=3/3(2);
 2/9=110/2;
 99//99;
 2/9=110/2;
 3/5=1,6=6,7=1,11=2,25=1,30=1,70=32205,71=1,72=13,74=-5/1,2,3;
 4/5=5,16=3,69=1/1;
 5/5=2,38=5,53=13/2;
 7//1,2,3,16;
 1/18=20,19=15,26=3/3(-5);
 2/9=110/2;
 6/7=2,8=2,9=2,10=2,19=2,28=1/1;
 99/9=1/99;
 ---------------
 tbu-tbu benzene
 ---------------
 Symbolic Z-matrix:
 Charge =  0 Multiplicity = 1
 C                    -0.75      0.26471   0. 
 C                     0.64516   0.26471   0. 
 C                     1.3427    1.47246   0. 
 C                     0.64504   2.68097  -0.0012 
 C                    -0.74978   2.68089  -0.00168 
 C                    -1.44738   1.47268  -0.00068 
 H                    -1.29976  -0.68761   0.00045 
 H                    -1.2999    3.63317  -0.00263 
 O                     2.7727    1.47256   0.00082 
 H                     3.09367   1.47145  -0.90393 
 C                    -2.98738   1.47294  -0.00093 
 C                    -3.50063   2.72296   0.73773 
 H                    -3.33119   3.58928   0.133 
 H                    -4.5486    2.61991   0.92756 
 H                    -2.9787    2.82822   1.66585 
 C                    -3.50047   1.48783  -1.45287 
 H                    -3.15463   0.61278  -1.96236 
 H                    -4.57039   1.50113  -1.45294 
 H                    -3.1329    2.35992  -1.95212 
 C                    -3.50104   0.20828   0.71209 
 H                    -3.27984  -0.65213   0.11571 
 H                    -3.02096   0.11557   1.66384 
 H                    -4.55922   0.28271   0.85213 
 C                     1.41471  -1.06923   0.00184 
 C                     0.41408  -2.23907   0.04433 
 H                    -0.18288  -2.16584   0.9293 
 H                    -0.21901  -2.19837  -0.81733 
 H                     0.94888  -3.16581   0.05052 
 C                     2.33046  -1.13186   1.2384 
 H                     2.36313  -2.13562   1.60757 
 H                     3.31727  -0.81912   0.96764 
 H                     1.94726  -0.48433   1.99917 
 C                     2.26915  -1.1707   -1.27536 
 H                     3.25223  -0.79752  -1.07739 
 H                     2.33117  -2.19375  -1.58264 
 H                     1.81771  -0.59133  -2.05345 
 C                     1.41555   4.01435  -0.00128 
 H                     2.04981   4.05983   0.85927 
 H                     2.01137   4.08193  -0.88747 
 H                     0.72082   4.82774   0.0243 
 

 GradGradGradGradGradGradGradGradGradGradGradGradGradGradGradGradGradGrad
 Berny optimization.
 Initialization pass.
                           ----------------------------
                           !    Initial Parameters    !
                           ! (Angstroms and Degrees)  !
 --------------------------                            --------------------------
 ! Name  Definition              Value          Derivative Info.                !
 --------------------------------------------------------------------------------
 ! R1    R(1,2)                  1.3952         estimate D2E/DX2                !
 ! R2    R(1,6)                  1.3948         estimate D2E/DX2                !
 ! R3    R(1,7)                  1.0996         estimate D2E/DX2                !
 ! R4    R(2,3)                  1.3947         estimate D2E/DX2                !
 ! R5    R(2,24)                 1.54           estimate D2E/DX2                !
 ! R6    R(3,4)                  1.3954         estimate D2E/DX2                !
 ! R7    R(3,9)                  1.43           estimate D2E/DX2                !
 ! R8    R(4,5)                  1.3948         estimate D2E/DX2                !
 ! R9    R(4,37)                 1.54           estimate D2E/DX2                !
 ! R10   R(5,6)                  1.3951         estimate D2E/DX2                !
 ! R11   R(5,8)                  1.0998         estimate D2E/DX2                !
 ! R12   R(6,11)                 1.54           estimate D2E/DX2                !
 ! R13   R(9,10)                 0.96           estimate D2E/DX2                !
 ! R14   R(11,12)                1.54           estimate D2E/DX2                !
 ! R15   R(11,16)                1.54           estimate D2E/DX2                !
 ! R16   R(11,20)                1.54           estimate D2E/DX2                !
 ! R17   R(12,13)                1.07           estimate D2E/DX2                !
 ! R18   R(12,14)                1.07           estimate D2E/DX2                !
 ! R19   R(12,15)                1.07           estimate D2E/DX2                !
 ! R20   R(16,17)                1.07           estimate D2E/DX2                !
 ! R21   R(16,18)                1.07           estimate D2E/DX2                !
 ! R22   R(16,19)                1.07           estimate D2E/DX2                !
 ! R23   R(20,21)                1.07           estimate D2E/DX2                !
 ! R24   R(20,22)                1.07           estimate D2E/DX2                !
 ! R25   R(20,23)                1.07           estimate D2E/DX2                !
 ! R26   R(24,25)                1.54           estimate D2E/DX2                !
 ! R27   R(24,29)                1.54           estimate D2E/DX2                !
 ! R28   R(24,33)                1.54           estimate D2E/DX2                !
 ! R29   R(25,26)                1.07           estimate D2E/DX2                !
 ! R30   R(25,27)                1.07           estimate D2E/DX2                !
 ! R31   R(25,28)                1.07           estimate D2E/DX2                !
 ! R32   R(29,30)                1.07           estimate D2E/DX2                !
 ! R33   R(29,31)                1.07           estimate D2E/DX2                !
 ! R34   R(29,32)                1.07           estimate D2E/DX2                !
 ! R35   R(33,34)                1.07           estimate D2E/DX2                !
 ! R36   R(33,35)                1.07           estimate D2E/DX2                !
 ! R37   R(33,36)                1.07           estimate D2E/DX2                !
 ! R38   R(37,38)                1.07           estimate D2E/DX2                !
 ! R39   R(37,39)                1.07           estimate D2E/DX2                !
 ! R40   R(37,40)                1.07           estimate D2E/DX2                !
 ! A1    A(2,1,6)              119.9985         estimate D2E/DX2                !
 ! A2    A(2,1,7)              119.9972         estimate D2E/DX2                !
 ! A3    A(6,1,7)              120.0043         estimate D2E/DX2                !
 ! A4    A(1,2,3)              120.0086         estimate D2E/DX2                !
 ! A5    A(1,2,24)             119.9808         estimate D2E/DX2                !
 ! A6    A(3,2,24)             120.0106         estimate D2E/DX2                !
 ! A7    A(2,3,4)              119.9942         estimate D2E/DX2                !
 ! A8    A(2,3,9)              120.0128         estimate D2E/DX2                !
 ! A9    A(4,3,9)              119.993          estimate D2E/DX2                !
 ! A10   A(3,4,5)              119.994          estimate D2E/DX2                !
 ! A11   A(3,4,37)             119.9811         estimate D2E/DX2                !
 ! A12   A(5,4,37)             120.0249         estimate D2E/DX2                !
 ! A13   A(4,5,6)              120.0047         estimate D2E/DX2                !
 ! A14   A(4,5,8)              120.0113         estimate D2E/DX2                !
 ! A15   A(6,5,8)              119.984          estimate D2E/DX2                !
 ! A16   A(1,6,5)              120.0            estimate D2E/DX2                !
 ! A17   A(1,6,11)             120.008          estimate D2E/DX2                !
 ! A18   A(5,6,11)             119.992          estimate D2E/DX2                !
 ! A19   A(3,9,10)             109.5            estimate D2E/DX2                !
 ! A20   A(6,11,12)            109.4712         estimate D2E/DX2                !
 ! A21   A(6,11,16)            109.4712         estimate D2E/DX2                !
 ! A22   A(6,11,20)            109.4712         estimate D2E/DX2                !
 ! A23   A(12,11,16)           109.4713         estimate D2E/DX2                !
 ! A24   A(12,11,20)           109.4712         estimate D2E/DX2                !
 ! A25   A(16,11,20)           109.4712         estimate D2E/DX2                !
 ! A26   A(11,12,13)           109.4712         estimate D2E/DX2                !
 ! A27   A(11,12,14)           109.4712         estimate D2E/DX2                !
 ! A28   A(11,12,15)           109.4712         estimate D2E/DX2                !
 ! A29   A(13,12,14)           109.4713         estimate D2E/DX2                !
 ! A30   A(13,12,15)           109.4712         estimate D2E/DX2                !
 ! A31   A(14,12,15)           109.4712         estimate D2E/DX2                !
 ! A32   A(11,16,17)           109.4712         estimate D2E/DX2                !
 ! A33   A(11,16,18)           109.4712         estimate D2E/DX2                !
 ! A34   A(11,16,19)           109.4712         estimate D2E/DX2                !
 ! A35   A(17,16,18)           109.4713         estimate D2E/DX2                !
 ! A36   A(17,16,19)           109.4712         estimate D2E/DX2                !
 ! A37   A(18,16,19)           109.4712         estimate D2E/DX2                !
 ! A38   A(11,20,21)           109.4712         estimate D2E/DX2                !
 ! A39   A(11,20,22)           109.4712         estimate D2E/DX2                !
 ! A40   A(11,20,23)           109.4712         estimate D2E/DX2                !
 ! A41   A(21,20,22)           109.4713         estimate D2E/DX2                !
 ! A42   A(21,20,23)           109.4712         estimate D2E/DX2                !
 ! A43   A(22,20,23)           109.4712         estimate D2E/DX2                !
 ! A44   A(2,24,25)            109.4712         estimate D2E/DX2                !
 ! A45   A(2,24,29)            109.4712         estimate D2E/DX2                !
 ! A46   A(2,24,33)            109.4712         estimate D2E/DX2                !
 ! A47   A(25,24,29)           109.4712         estimate D2E/DX2                !
 ! A48   A(25,24,33)           109.4712         estimate D2E/DX2                !
 ! A49   A(29,24,33)           109.4713         estimate D2E/DX2                !
 ! A50   A(24,25,26)           109.4712         estimate D2E/DX2                !
 ! A51   A(24,25,27)           109.4712         estimate D2E/DX2                !
 ! A52   A(24,25,28)           109.4712         estimate D2E/DX2                !
 ! A53   A(26,25,27)           109.4713         estimate D2E/DX2                !
 ! A54   A(26,25,28)           109.4712         estimate D2E/DX2                !
 ! A55   A(27,25,28)           109.4712         estimate D2E/DX2                !
 ! A56   A(24,29,30)           109.4712         estimate D2E/DX2                !
 ! A57   A(24,29,31)           109.4712         estimate D2E/DX2                !
 ! A58   A(24,29,32)           109.4712         estimate D2E/DX2                !
 ! A59   A(30,29,31)           109.4713         estimate D2E/DX2                !
 ! A60   A(30,29,32)           109.4712         estimate D2E/DX2                !
 ! A61   A(31,29,32)           109.4712         estimate D2E/DX2                !
 ! A62   A(24,33,34)           109.4712         estimate D2E/DX2                !
 ! A63   A(24,33,35)           109.4712         estimate D2E/DX2                !
 ! A64   A(24,33,36)           109.4712         estimate D2E/DX2                !
 ! A65   A(34,33,35)           109.4713         estimate D2E/DX2                !
 ! A66   A(34,33,36)           109.4712         estimate D2E/DX2                !
 ! A67   A(35,33,36)           109.4712         estimate D2E/DX2                !
 ! A68   A(4,37,38)            109.4712         estimate D2E/DX2                !
 ! A69   A(4,37,39)            109.4712         estimate D2E/DX2                !
 ! A70   A(4,37,40)            109.4712         estimate D2E/DX2                !
 ! A71   A(38,37,39)           109.4713         estimate D2E/DX2                !
 ! A72   A(38,37,40)           109.4712         estimate D2E/DX2                !
 ! A73   A(39,37,40)           109.4712         estimate D2E/DX2                !
 ! D1    D(6,1,2,3)              0.0323         estimate D2E/DX2                !
 ! D2    D(6,1,2,24)           179.9532         estimate D2E/DX2                !
 ! D3    D(7,1,2,3)           -179.9729         estimate D2E/DX2                !
 ! D4    D(7,1,2,24)            -0.052          estimate D2E/DX2                !
 ! D5    D(2,1,6,5)              0.0149         estimate D2E/DX2                !
 ! D6    D(2,1,6,11)           179.9892         estimate D2E/DX2                !
 ! D7    D(7,1,6,5)           -179.9798         estimate D2E/DX2                !
 ! D8    D(7,1,6,11)            -0.0056         estimate D2E/DX2                !
 ! D9    D(1,2,3,4)             -0.0568         estimate D2E/DX2                !
 ! D10   D(1,2,3,9)            179.9619         estimate D2E/DX2                !
 ! D11   D(24,2,3,4)          -179.9777         estimate D2E/DX2                !
 ! D12   D(24,2,3,9)             0.041          estimate D2E/DX2                !
 ! D13   D(1,2,24,25)           -1.613          estimate D2E/DX2                !
 ! D14   D(1,2,24,29)         -121.613          estimate D2E/DX2                !
 ! D15   D(1,2,24,33)          118.387          estimate D2E/DX2                !
 ! D16   D(3,2,24,25)          178.3079         estimate D2E/DX2                !
 ! D17   D(3,2,24,29)           58.3079         estimate D2E/DX2                !
 ! D18   D(3,2,24,33)          -61.6921         estimate D2E/DX2                !
 ! D19   D(2,3,4,5)              0.0341         estimate D2E/DX2                !
 ! D20   D(2,3,4,37)          -179.9964         estimate D2E/DX2                !
 ! D21   D(9,3,4,5)           -179.9846         estimate D2E/DX2                !
 ! D22   D(9,3,4,37)            -0.0151         estimate D2E/DX2                !
 ! D23   D(2,3,9,10)            89.947          estimate D2E/DX2                !
 ! D24   D(4,3,9,10)           -90.0343         estimate D2E/DX2                !
 ! D25   D(3,4,5,6)              0.0131         estimate D2E/DX2                !
 ! D26   D(3,4,5,8)           -179.9995         estimate D2E/DX2                !
 ! D27   D(37,4,5,6)          -179.9563         estimate D2E/DX2                !
 ! D28   D(37,4,5,8)             0.0311         estimate D2E/DX2                !
 ! D29   D(3,4,37,38)          -58.4909         estimate D2E/DX2                !
 ! D30   D(3,4,37,39)           61.5092         estimate D2E/DX2                !
 ! D31   D(3,4,37,40)         -178.4909         estimate D2E/DX2                !
 ! D32   D(5,4,37,38)          121.4786         estimate D2E/DX2                !
 ! D33   D(5,4,37,39)         -118.5214         estimate D2E/DX2                !
 ! D34   D(5,4,37,40)            1.4786         estimate D2E/DX2                !
 ! D35   D(4,5,6,1)             -0.0376         estimate D2E/DX2                !
 ! D36   D(4,5,6,11)           179.9881         estimate D2E/DX2                !
 ! D37   D(8,5,6,1)            179.975          estimate D2E/DX2                !
 ! D38   D(8,5,6,11)             0.0007         estimate D2E/DX2                !
 ! D39   D(1,6,11,12)          149.3889         estimate D2E/DX2                !
 ! D40   D(1,6,11,16)          -90.6111         estimate D2E/DX2                !
 ! D41   D(1,6,11,20)           29.3889         estimate D2E/DX2                !
 ! D42   D(5,6,11,12)          -30.6368         estimate D2E/DX2                !
 ! D43   D(5,6,11,16)           89.3632         estimate D2E/DX2                !
 ! D44   D(5,6,11,20)         -150.6368         estimate D2E/DX2                !
 ! D45   D(6,11,12,13)          72.3688         estimate D2E/DX2                !
 ! D46   D(6,11,12,14)        -167.6311         estimate D2E/DX2                !
 ! D47   D(6,11,12,15)         -47.6312         estimate D2E/DX2                !
 ! D48   D(16,11,12,13)        -47.6311         estimate D2E/DX2                !
 ! D49   D(16,11,12,14)         72.3689         estimate D2E/DX2                !
 ! D50   D(16,11,12,15)       -167.6311         estimate D2E/DX2                !
 ! D51   D(20,11,12,13)       -167.6312         estimate D2E/DX2                !
 ! D52   D(20,11,12,14)        -47.6311         estimate D2E/DX2                !
 ! D53   D(20,11,12,15)         72.3688         estimate D2E/DX2                !
 ! D54   D(6,11,16,17)          60.7455         estimate D2E/DX2                !
 ! D55   D(6,11,16,18)        -179.2545         estimate D2E/DX2                !
 ! D56   D(6,11,16,19)         -59.2545         estimate D2E/DX2                !
 ! D57   D(12,11,16,17)       -179.2545         estimate D2E/DX2                !
 ! D58   D(12,11,16,18)        -59.2545         estimate D2E/DX2                !
 ! D59   D(12,11,16,19)         60.7455         estimate D2E/DX2                !
 ! D60   D(20,11,16,17)        -59.2545         estimate D2E/DX2                !
 ! D61   D(20,11,16,18)         60.7455         estimate D2E/DX2                !
 ! D62   D(20,11,16,19)       -179.2545         estimate D2E/DX2                !
 ! D63   D(6,11,20,21)         -69.0457         estimate D2E/DX2                !
 ! D64   D(6,11,20,22)          50.9543         estimate D2E/DX2                !
 ! D65   D(6,11,20,23)         170.9543         estimate D2E/DX2                !
 ! D66   D(12,11,20,21)        170.9543         estimate D2E/DX2                !
 ! D67   D(12,11,20,22)        -69.0457         estimate D2E/DX2                !
 ! D68   D(12,11,20,23)         50.9543         estimate D2E/DX2                !
 ! D69   D(16,11,20,21)         50.9543         estimate D2E/DX2                !
 ! D70   D(16,11,20,22)        170.9543         estimate D2E/DX2                !
 ! D71   D(16,11,20,23)        -69.0457         estimate D2E/DX2                !
 ! D72   D(2,24,25,26)         -59.7207         estimate D2E/DX2                !
 ! D73   D(2,24,25,27)          60.2793         estimate D2E/DX2                !
 ! D74   D(2,24,25,28)        -179.7207         estimate D2E/DX2                !
 ! D75   D(29,24,25,26)         60.2792         estimate D2E/DX2                !
 ! D76   D(29,24,25,27)       -179.7207         estimate D2E/DX2                !
 ! D77   D(29,24,25,28)        -59.7207         estimate D2E/DX2                !
 ! D78   D(33,24,25,26)       -179.7207         estimate D2E/DX2                !
 ! D79   D(33,24,25,27)        -59.7207         estimate D2E/DX2                !
 ! D80   D(33,24,25,28)         60.2793         estimate D2E/DX2                !
 ! D81   D(2,24,29,30)         143.7819         estimate D2E/DX2                !
 ! D82   D(2,24,29,31)         -96.2181         estimate D2E/DX2                !
 ! D83   D(2,24,29,32)          23.7819         estimate D2E/DX2                !
 ! D84   D(25,24,29,30)         23.7819         estimate D2E/DX2                !
 ! D85   D(25,24,29,31)        143.7819         estimate D2E/DX2                !
 ! D86   D(25,24,29,32)        -96.2181         estimate D2E/DX2                !
 ! D87   D(33,24,29,30)        -96.2181         estimate D2E/DX2                !
 ! D88   D(33,24,29,31)         23.7819         estimate D2E/DX2                !
 ! D89   D(33,24,29,32)        143.7819         estimate D2E/DX2                !
 ! D90   D(2,24,33,34)          92.9747         estimate D2E/DX2                !
 ! D91   D(2,24,33,35)        -147.0253         estimate D2E/DX2                !
 ! D92   D(2,24,33,36)         -27.0253         estimate D2E/DX2                !
 ! D93   D(25,24,33,34)       -147.0253         estimate D2E/DX2                !
 ! D94   D(25,24,33,35)        -27.0253         estimate D2E/DX2                !
 ! D95   D(25,24,33,36)         92.9747         estimate D2E/DX2                !
 ! D96   D(29,24,33,34)        -27.0253         estimate D2E/DX2                !
 ! D97   D(29,24,33,35)         92.9748         estimate D2E/DX2                !
 ! D98   D(29,24,33,36)       -147.0252         estimate D2E/DX2                !
 --------------------------------------------------------------------------------
 Trust Radius=3.00D-01 FncErr=1.00D-07 GrdErr=1.00D-06 EigMax=2.50D+02 EigMin=1.00D-04
 Number of steps in this run=    221 maximum allowed number of steps=    240.
 GradGradGradGradGradGradGradGradGradGradGradGradGradGradGradGradGradGrad

                          Input orientation:                          
 ---------------------------------------------------------------------
 Center     Atomic      Atomic             Coordinates (Angstroms)
 Number     Number       Type             X           Y           Z
 ---------------------------------------------------------------------
      1          6           0       -0.750000    0.264706    0.000000
      2          6           0        0.645160    0.264706    0.000000
      3          6           0        1.342698    1.472457    0.000000
      4          6           0        0.645044    2.680966   -0.001199
      5          6           0       -0.749781    2.680888   -0.001678
      6          6           0       -1.447382    1.472682   -0.000682
      7          1           0       -1.299759   -0.687611    0.000450
      8          1           0       -1.299903    3.633169   -0.002631
      9          8           0        2.772698    1.472561    0.000824
     10          1           0        3.093674    1.471446   -0.903926
     11          6           0       -2.987382    1.472938   -0.000934
     12          6           0       -3.500628    2.722961    0.737727
     13          1           0       -3.331193    3.589276    0.133004
     14          1           0       -4.548600    2.619907    0.927556
     15          1           0       -2.978696    2.828223    1.665848
     16          6           0       -3.500475    1.487826   -1.452869
     17          1           0       -3.154628    0.612778   -1.962359
     18          1           0       -4.570392    1.501130   -1.452939
     19          1           0       -3.132904    2.359916   -1.952120
     20          6           0       -3.501043    0.208283    0.712087
     21          1           0       -3.279838   -0.652126    0.115710
     22          1           0       -3.020960    0.115571    1.663836
     23          1           0       -4.559225    0.282715    0.852126
     24          6           0        1.414712   -1.069230    0.001842
     25          6           0        0.414080   -2.239072    0.044325
     26          1           0       -0.182877   -2.165845    0.929300
     27          1           0       -0.219007   -2.198370   -0.817327
     28          1           0        0.948880   -3.165814    0.050520
     29          6           0        2.330462   -1.131856    1.238402
     30          1           0        2.363125   -2.135624    1.607565
     31          1           0        3.317268   -0.819124    0.967638
     32          1           0        1.947260   -0.484331    1.999170
     33          6           0        2.269147   -1.170699   -1.275361
     34          1           0        3.252227   -0.797521   -1.077392
     35          1           0        2.331175   -2.193748   -1.582642
     36          1           0        1.817705   -0.591328   -2.053454
     37          6           0        1.415548    4.014354   -0.001282
     38          1           0        2.049806    4.059831    0.859270
     39          1           0        2.011369    4.081934   -0.887471
     40          1           0        0.720820    4.827741    0.024299
 ---------------------------------------------------------------------
                    Distance matrix (angstroms):
                    1          2          3          4          5
     1  C    0.000000
     2  C    1.395160   0.000000
     3  C    2.416205   1.394712   0.000000
     4  C    2.790065   2.416260   1.395427   0.000000
     5  C    2.416183   2.789946   2.416356   1.394825   0.000000
     6  C    1.394829   2.416183   2.790080   2.416236   1.395138
     7  H    1.099610   2.165553   3.412986   3.889675   3.413102
     8  H    3.413055   3.889707   3.413506   2.165528   1.099761
     9  O    3.724019   2.446494   1.430000   2.446867   3.723965
    10  H    4.128817   2.875504   1.970533   2.876394   4.129037
    11  C    2.542775   3.828209   4.330080   3.828035   2.542833
    12  C    3.762076   4.875943   5.056264   4.211219   2.848798
    13  H    4.211059   5.184770   5.132628   4.080870   2.739890
    14  H    4.564723   5.777757   6.073252   5.276386   3.911293
    15  H    3.783352   4.741203   4.825723   3.991519   2.787546
    16  C    3.342449   4.559949   5.056420   4.551511   3.331016
    17  H    3.123178   4.290733   4.981550   4.749848   3.728892
    18  H    4.270266   5.553536   6.089046   5.540788   4.253828
    19  H    3.725441   4.740722   4.962799   4.264043   3.096211
    20  C    2.842268   4.207285   5.056385   4.879854   3.767317
    21  H    2.693334   4.032316   5.088720   5.150521   4.186161
    22  H    2.819193   4.028775   4.863230   4.774220   3.809599
    23  H    3.903413   5.273714   6.080649   5.793461   4.581711
    24  C    2.542709   1.540000   2.542708   3.828364   4.329946
    25  C    2.761513   2.514810   3.826192   4.925667   5.055957
    26  H    2.663232   2.730718   4.053173   5.004283   4.967788
    27  H    2.648909   2.735242   4.072090   5.022008   4.975355
    28  H    3.828474   3.444309   4.655234   5.854898   6.088686
    29  C    3.601842   2.514809   3.048239   4.349121   5.055958
    30  H    4.247046   3.361139   4.079680   5.360920   5.956395
    31  H    4.318990   3.041573   3.175939   4.508886   5.452572
    32  H    3.439905   2.500640   2.862027   3.964385   4.614763
    33  C    3.578013   2.514809   3.077519   4.369956   5.056769
    34  H    4.278659   3.014282   3.155927   4.478333   5.410412
    35  H    4.247633   3.375115   4.113746   5.395075   5.979449
    36  H    3.397437   2.514822   2.949833   4.036681   4.637797
    37  C    4.330065   3.827971   2.542941   1.540000   2.542987
    38  H    4.793770   4.136950   2.816532   2.148263   3.237345
    39  H    4.794162   4.150345   2.836212   2.148263   3.220482
    40  H    4.794287   4.563727   3.412514   2.148263   2.602368
                    6          7          8          9         10
     6  C    0.000000
     7  H    2.165331   0.000000
     8  H    2.165516   4.320781   0.000000
     9  O    4.220080   4.609908   4.610240   0.000000
    10  H    4.630015   4.978120   4.978845   0.960000   0.000000
    11  C    1.540000   2.741541   2.741201   5.760080   6.147734
    12  C    2.514809   4.125458   2.493952   6.439033   6.909858
    13  H    2.836651   4.736672   2.036286   6.461845   6.843928
    14  H    3.434429   4.728020   3.527885   7.468375   7.942143
    15  H    2.638131   4.237153   2.500021   6.139109   6.731884
    16  C    2.514809   3.418744   3.398264   6.439422   6.616979
    17  H    2.739032   2.997360   4.050098   6.302896   6.395222
    18  H    3.444278   4.195232   4.164742   7.485667   7.683762
    19  H    2.726954   4.057138   2.963372   6.283114   6.376391
    20  C    2.514810   2.480868   4.133483   6.439263   6.906328
    21  H    2.808246   1.983748   4.722065   6.415659   6.794914
    22  H    2.662427   2.524775   4.255895   6.178471   6.769088
    23  H    3.439022   3.505852   4.751771   7.476465   7.941263
    24  C    3.827912   2.741166   5.429707   2.881810   3.177163
    25  C    4.152612   2.312185   6.117447   4.397862   4.674115
    26  H    3.962665   2.072526   5.978696   4.778648   5.227464
    27  H    3.956316   2.029575   5.986561   4.805768   4.944583
    28  H    5.221143   3.346696   7.161426   4.984306   5.197623
    29  C    4.753004   3.861137   6.117611   2.917217   3.456767
    30  H    5.488743   4.253973   7.020647   3.970940   4.455586
    31  H    5.375119   4.719076   6.487110   2.546194   2.966387
    32  H    4.399193   3.818289   5.612939   2.916189   3.683381
    33  C    4.735489   3.820754   6.118423   2.978092   2.792622
    34  H    5.329114   4.679146   6.442671   2.558470   2.281105
    35  H    5.497527   4.237724   7.045149   4.017976   3.804696
    36  H    4.374335   3.734485   5.636641   3.064589   2.684129
    37  C    3.828376   5.429675   2.742076   2.881418   3.177618
    38  H    4.434319   5.873276   3.485034   2.820189   3.301251
    39  H    4.422392   5.873715   3.456711   2.859636   2.826005
    40  H    3.994764   5.873875   2.347562   3.932936   4.213876
                   11         12         13         14         15
    11  C    0.000000
    12  C    1.540000   0.000000
    13  H    2.148263   1.070000   0.000000
    14  H    2.148263   1.070000   1.747303   0.000000
    15  H    2.148263   1.070000   1.747303   1.747303   0.000000
    16  C    1.540000   2.514810   2.638132   2.836652   3.434430
    17  H    2.148263   3.444278   3.644346   3.784618   4.254765
    18  H    2.148263   2.726955   2.900204   2.630378   3.744529
    19  H    2.148263   2.739033   2.428660   3.219367   3.651409
    20  C    1.540000   2.514809   3.434429   2.638131   2.836651
    21  H    2.148263   3.439021   4.241748   3.602090   3.821837
    22  H    2.148263   2.808246   3.808716   3.024482   2.712982
    23  H    2.148263   2.662427   3.599799   2.338434   3.104807
    24  C    5.083411   6.251625   6.651504   7.073031   6.104187
    25  C    5.034979   6.358264   6.928534   7.001283   6.310131
    26  H    4.687358   5.911396   6.608131   6.477883   5.770600
    27  H    4.670000   6.116104   6.639704   6.708635   6.248894
    28  H    6.083981   7.412695   7.997317   8.029075   7.345994
    29  C    6.049824   7.007988   7.454215   7.841801   6.637175
    30  H    6.651084   7.664599   8.208171   8.417211   7.292341
    31  H    6.777926   7.686542   8.020763   8.584894   7.309569
    32  H    5.672919   6.446506   6.923793   7.278794   5.945516
    33  C    6.020305   7.245924   7.483626   8.105751   7.223707
    34  H    6.726550   7.828761   8.003154   8.749373   7.713352
    35  H    6.650822   7.972958   8.273404   8.763770   7.997975
    36  H    5.618086   6.860020   6.983495   7.728408   6.966491
    37  C    5.083757   5.136401   4.767628   6.195020   4.847227
    38  H    5.727585   5.710456   5.450141   6.754036   5.239586
    39  H    5.707917   5.905098   5.461414   6.961683   5.743864
    40  H    5.000609   4.770712   4.238445   5.784218   4.514330
                   16         17         18         19         20
    16  C    0.000000
    17  H    1.070000   0.000000
    18  H    1.070000   1.747303   0.000000
    19  H    1.070000   1.747303   1.747303   0.000000
    20  C    2.514809   2.726954   2.739032   3.444278   0.000000
    21  H    2.662427   2.435986   2.960186   3.656488   1.070000
    22  H    3.439021   3.662563   3.746304   4.257318   1.070000
    23  H    2.808247   3.162777   2.607295   3.770007   1.070000
    24  C    5.728332   5.250343   6.674175   6.021447   5.128463
    25  C    5.608485   4.989539   6.409046   6.141464   4.665152
    26  H    5.480009   4.991366   6.194518   6.122724   4.085816
    27  H    4.975941   4.222738   5.746725   5.527795   4.347740
    28  H    6.611604   5.930279   7.382623   7.155782   5.623523
    29  C    6.935812   6.585956   7.861152   7.226359   6.006615
    30  H    7.541715   7.123459   8.406327   7.942769   6.378421
    31  H    7.593582   7.247113   8.570761   7.761185   6.900016
    32  H    6.744167   6.551840   7.637990   7.036370   5.640948
    33  C    6.355140   5.750660   7.345032   6.488867   6.256727
    34  H    7.138822   6.619660   8.161998   7.176660   7.058366
    35  H    6.897751   6.173718   7.829468   7.122396   6.711952
    36  H    5.741657   5.116860   6.748836   5.764429   6.047865
    37  C    5.714694   6.025201   6.652449   5.218367   6.258429
    38  H    6.539634   6.850539   7.464602   6.136295   6.757811
    39  H    6.117964   6.314899   7.092240   5.528324   6.924626
    40  H    5.581790   6.060677   6.422265   4.984734   6.295758
                   21         22         23         24         25
    21  H    0.000000
    22  H    1.747303   0.000000
    23  H    1.747303   1.747303   0.000000
    24  C    4.714418   4.882742   6.183742   0.000000
    25  C    4.021010   4.468407   5.634333   1.540000   0.000000
    26  H    3.541813   3.714716   5.015358   2.148263   1.070000
    27  H    3.553887   4.400162   5.270706   2.148263   1.070000
    28  H    4.919851   5.397213   6.547835   2.148263   1.070000
    29  C    5.741606   5.511332   7.044004   1.540000   2.514809
    30  H    6.022411   5.836045   7.371430   2.148263   2.500640
    31  H    6.653981   6.444492   7.954025   2.148263   3.361139
    32  H    5.558608   5.015530   6.651196   2.148263   3.041574
    33  C    5.744147   6.186970   7.298306   1.540000   2.514809
    34  H    6.641724   6.906587   8.118419   2.148263   3.375115
    35  H    6.061721   6.672175   7.716124   2.148263   2.514822
    36  H    5.540209   6.142526   7.061981   2.148263   3.014283
    37  C    6.620904   6.136427   7.095868   5.083585   6.333274
    38  H    7.152658   6.474348   7.612224   5.238874   6.558652
    39  H    7.170394   6.896777   7.786717   5.261309   6.585947
    40  H    6.785466   6.236469   7.015799   5.937698   7.073495
                   26         27         28         29         30
    26  H    0.000000
    27  H    1.747303   0.000000
    28  H    1.747303   1.747303   0.000000
    29  C    2.735242   3.444309   2.730718   0.000000
    30  H    2.634973   3.542802   2.342173   1.070000   0.000000
    31  H    3.750485   4.194479   3.457936   1.070000   1.747303
    32  H    2.917120   3.945034   3.461842   1.070000   1.747303
    33  C    3.444309   2.730717   2.735242   2.514810   3.041574
    34  H    4.207025   3.752264   3.490904   2.514822   3.128901
    35  H    3.554024   2.662547   2.350078   3.014283   3.190897
    36  H    3.921511   2.873812   3.436502   3.375115   4.010661
    37  C    6.451031   6.475773   7.195504   5.371904   6.427171
    38  H    6.614289   6.864661   7.353643   5.213072   6.248342
    39  H    6.866594   6.664962   7.385023   5.639571   6.708723
    40  H    7.109566   7.138476   7.996851   6.291405   7.327507
                   31         32         33         34         35
    31  H    0.000000
    32  H    1.747303   0.000000
    33  C    2.500641   3.361140   0.000000
    34  H    2.046178   3.356525   1.070000   0.000000
    35  H    3.060376   3.987339   1.070000   1.747303   0.000000
    36  H    3.380470   4.056106   1.070000   1.747303   1.747303
    37  C    5.283734   4.952039   5.407095   5.261705   6.471445
    38  H    5.042064   4.686075   5.653601   5.365663   6.719327
    39  H    5.400664   5.402554   5.273240   5.038341   6.322162
    40  H    6.286375   5.798481   6.329906   6.266204   7.380841
                   36         37         38         39         40
    36  H    0.000000
    37  C    5.058206   0.000000
    38  H    5.492823   1.070000   0.000000
    39  H    4.820415   1.070000   1.747303   0.000000
    40  H    5.906481   1.070000   1.747303   1.747303   0.000000
 Stoichiometry    C15H24O
 Framework group  C1[X(C15H24O)]
 Deg. of freedom   114
 Full point group                 C1      NOp   1
 Largest Abelian subgroup         C1      NOp   1
 Largest concise Abelian subgroup C1      NOp   1
                         Standard orientation:                         
 ---------------------------------------------------------------------
 Center     Atomic      Atomic             Coordinates (Angstroms)
 Number     Number       Type             X           Y           Z
 ---------------------------------------------------------------------
      1          6           0        0.258928   -0.773970   -0.001153
      2          6           0       -1.023631   -0.224929   -0.009431
      3          6           0       -1.189549    1.159843   -0.019312
      4          6           0       -0.072584    1.996268   -0.019721
      5          6           0        1.209635    1.447291   -0.010966
      6          6           0        1.375435    0.062069   -0.002078
      7          1           0        0.389524   -1.865773    0.006187
      8          1           0        2.090134    2.106226   -0.011277
      9          8           0       -2.504092    1.722684   -0.028621
     10          1           0       -2.802843    1.854041    0.874204
     11          6           0        2.791244   -0.543733    0.007310
     12          6           0        3.757673    0.398464   -0.734229
     13          1           0        3.940694    1.265589   -0.134648
     14          1           0        4.681187   -0.109956   -0.917344
     15          1           0        3.322618    0.694401   -1.665920
     16          6           0        3.263583   -0.722228    1.462176
     17          1           0        2.599439   -1.387129    1.973760
     18          1           0        4.252385   -1.131044    1.468530
     19          1           0        3.267110    0.227471    1.955086
     20          6           0        2.768284   -1.913238   -0.696630
     21          1           0        2.224173   -2.613149   -0.097491
     22          1           0        2.293870   -1.815922   -1.650758
     23          1           0        3.770857   -2.262181   -0.830741
     24          6           0       -2.256052   -1.148368   -0.009495
     25          6           0       -1.796430   -2.617853   -0.040477
     26          1           0       -1.215663   -2.791393   -0.922233
     27          1           0       -1.201507   -2.823798    0.824712
     28          1           0       -2.652774   -3.259375   -0.045438
     29          6           0       -3.118109   -0.853854   -1.251154
     30          1           0       -3.541858   -1.766227   -1.615728
     31          1           0       -3.903163   -0.176208   -0.987740
     32          1           0       -2.508269   -0.414498   -2.012706
     33          6           0       -3.086037   -0.896833    1.263084
     34          1           0       -3.842197   -0.168230    1.057514
     35          1           0       -3.546791   -1.810838    1.574853
     36          1           0       -2.445800   -0.536664    2.041078
     37          6           0       -0.256133    3.525252   -0.030550
     38          1           0       -0.818220    3.810888   -0.895056
     39          1           0       -0.780444    3.827795    0.851757
     40          1           0        0.702733    3.999418   -0.055875
 ---------------------------------------------------------------------
 Rotational constants (GHZ):           0.7335098           0.3890215           0.2866019
 Standard basis: 6-31G(d) (6D, 7F)
 There are   288 symmetry adapted cartesian basis functions of A   symmetry.
 There are   288 symmetry adapted basis functions of A   symmetry.
   288 basis functions,   544 primitive gaussians,   288 cartesian basis functions
    61 alpha electrons       61 beta electrons
       nuclear repulsion energy      1176.5529595356 Hartrees.
 NAtoms=   40 NActive=   40 NUniq=   40 SFac= 1.00D+00 NAtFMM=   60 NAOKFM=F Big=F
 Integral buffers will be    131072 words long.
 Raffenetti 2 integral format.
 Two-electron integral symmetry is turned on.
 ------------------------------------------------------------------------------
 Polarizable Continuum Model (PCM)
 =================================
 Model                : PCM.
 Atomic radii         : SMD-Coulomb.
 Polarization charges : Total charges.
 Charge compensation  : None.
 Solution method      : On-the-fly selection.
 Cavity type          : VdW (van der Waals Surface) (Alpha=1.000).
 Cavity algorithm     : GePol (No added spheres)
                        Default sphere list used, NSphG=   40.
                        Lebedev-Laikov grids with approx.  5.0 points / Ang**2.
                        Smoothing algorithm: York/Karplus (Gamma=1.0000).
                        Polarization charges: spherical gaussians, with
                                              point-specific exponents (IZeta= 3).
                        Self-potential: point-specific (ISelfS= 7).
                        Self-field    : sphere-specific E.n sum rule (ISelfD= 2).
 1st derivatives      : Analytical E(r).r(x)/FMM algorithm (CHGder, D1EAlg=3).
                        Cavity 1st derivative terms included.
 Solvent              : Toluene, Eps=   2.374100 Eps(inf)=   2.238315
 ------------------------------------------------------------------------------
 ------------------------------------------------------------------------------
 Atomic radii for non-electrostatic terms: SMD-CDS.
 ------------------------------------------------------------------------------
 Nuclear repulsion after PCM non-electrostatic terms =     1176.5450557065 Hartrees.
 One-electron integrals computed using PRISM.
 NBasis=   288 RedAO= T EigKep=  3.07D-04  NBF=   288
 NBsUse=   288 1.00D-06 EigRej= -1.00D+00 NBFU=   288
 ExpMin= 1.61D-01 ExpMax= 5.48D+03 ExpMxC= 8.25D+02 IAcc=3 IRadAn=         5 AccDes= 0.00D+00
 Harris functional with IExCor=  402 and IRadAn=       5 diagonalized for initial guess.
 HarFok:  IExCor=  402 AccDes= 0.00D+00 IRadAn=         5 IDoV= 1 UseB2=F ITyADJ=14
 ICtDFT=  3500011 ScaDFX=  1.000000  1.000000  1.000000  1.000000
 FoFCou: FMM=F IPFlag=           0 FMFlag=      100000 FMFlg1=           0
         NFxFlg=           0 DoJE=T BraDBF=F KetDBF=T FulRan=T
         wScrn=  0.000000 ICntrl=       500 IOpCl=  0 I1Cent=   200000004 NGrid=           0
         NMat0=    1 NMatS0=      1 NMatT0=    0 NMatD0=    1 NMtDS0=    0 NMtDT0=    0
 Petite list used in FoFCou.
 Requested convergence on RMS density matrix=1.00D-08 within 128 cycles.
 Requested convergence on MAX density matrix=1.00D-06.
 Requested convergence on             energy=1.00D-06.
 No special actions if energy rises.
 Inv3:  Mode=1 IEnd=    19891875.
 Iteration    1 A*A^-1 deviation from unit magnitude is 4.88D-15 for   2553.
 Iteration    1 A*A^-1 deviation from orthogonality  is 2.47D-15 for   1757    726.
 Iteration    1 A^-1*A deviation from unit magnitude is 4.88D-15 for   2553.
 Iteration    1 A^-1*A deviation from orthogonality  is 1.89D-15 for   2573   2468.
 Error on total polarization charges =  0.03356
 SCF Done:  E(RB3LYP) =  -661.268418943     A.U. after   12 cycles
            NFock= 12  Conv=0.88D-08     -V/T= 2.0085
 SMD-CDS (non-electrostatic) energy       (kcal/mol) =      -4.96
 (included in total energy above)

 **********************************************************************

            Population analysis using the SCF Density.

 **********************************************************************

 Orbital symmetries:
       Occupied  (A) (A) (A) (A) (A) (A) (A) (A) (A) (A) (A) (A)
                 (A) (A) (A) (A) (A) (A) (A) (A) (A) (A) (A) (A)
                 (A) (A) (A) (A) (A) (A) (A) (A) (A) (A) (A) (A)
                 (A) (A) (A) (A) (A) (A) (A) (A) (A) (A) (A) (A)
                 (A) (A) (A) (A) (A) (A) (A) (A) (A) (A) (A) (A)
                 (A)
       Virtual   (A) (A) (A) (A) (A) (A) (A) (A) (A) (A) (A) (A)
                 (A) (A) (A) (A) (A) (A) (A) (A) (A) (A) (A) (A)
                 (A) (A) (A) (A) (A) (A) (A) (A) (A) (A) (A) (A)
                 (A) (A) (A) (A) (A) (A) (A) (A) (A) (A) (A) (A)
                 (A) (A) (A) (A) (A) (A) (A) (A) (A) (A) (A) (A)
                 (A) (A) (A) (A) (A) (A) (A) (A) (A) (A) (A) (A)
                 (A) (A) (A) (A) (A) (A) (A) (A) (A) (A) (A) (A)
                 (A) (A) (A) (A) (A) (A) (A) (A) (A) (A) (A) (A)
                 (A) (A) (A) (A) (A) (A) (A) (A) (A) (A) (A) (A)
                 (A) (A) (A) (A) (A) (A) (A) (A) (A) (A) (A) (A)
                 (A) (A) (A) (A) (A) (A) (A) (A) (A) (A) (A) (A)
                 (A) (A) (A) (A) (A) (A) (A) (A) (A) (A) (A) (A)
                 (A) (A) (A) (A) (A) (A) (A) (A) (A) (A) (A) (A)
                 (A) (A) (A) (A) (A) (A) (A) (A) (A) (A) (A) (A)
                 (A) (A) (A) (A) (A) (A) (A) (A) (A) (A) (A) (A)
                 (A) (A) (A) (A) (A) (A) (A) (A) (A) (A) (A) (A)
                 (A) (A) (A) (A) (A) (A) (A) (A) (A) (A) (A) (A)
                 (A) (A) (A) (A) (A) (A) (A) (A) (A) (A) (A) (A)
                 (A) (A) (A) (A) (A) (A) (A) (A) (A) (A) (A)
 The electronic state is 1-A.
 Alpha  occ. eigenvalues --  -19.15215 -10.22441 -10.18750 -10.18652 -10.18576
 Alpha  occ. eigenvalues --  -10.17923 -10.17720 -10.17212 -10.16956 -10.16639
 Alpha  occ. eigenvalues --  -10.15746 -10.15594 -10.15592 -10.15583 -10.15570
 Alpha  occ. eigenvalues --  -10.14788  -1.02060  -0.85388  -0.81689  -0.79923
 Alpha  occ. eigenvalues --   -0.74794  -0.71484  -0.69332  -0.68352  -0.68178
 Alpha  occ. eigenvalues --   -0.67764  -0.66631  -0.60401  -0.58833  -0.53579
 Alpha  occ. eigenvalues --   -0.52720  -0.50865  -0.47142  -0.47069  -0.44639
 Alpha  occ. eigenvalues --   -0.43672  -0.43189  -0.42821  -0.42397  -0.42301
 Alpha  occ. eigenvalues --   -0.40897  -0.40194  -0.39653  -0.38913  -0.38475
 Alpha  occ. eigenvalues --   -0.37414  -0.37096  -0.36800  -0.36375  -0.35558
 Alpha  occ. eigenvalues --   -0.35431  -0.33538  -0.32473  -0.31900  -0.31816
 Alpha  occ. eigenvalues --   -0.30952  -0.30578  -0.29485  -0.27534  -0.22993
 Alpha  occ. eigenvalues --   -0.22003
 Alpha virt. eigenvalues --    0.01339   0.01439   0.07285   0.09179   0.11761
 Alpha virt. eigenvalues --    0.12420   0.13842   0.14140   0.14594   0.15244
 Alpha virt. eigenvalues --    0.15552   0.15686   0.16870   0.17292   0.17541
 Alpha virt. eigenvalues --    0.18154   0.18522   0.19251   0.19406   0.19580
 Alpha virt. eigenvalues --    0.20577   0.20736   0.21034   0.21392   0.21819
 Alpha virt. eigenvalues --    0.22360   0.23010   0.23746   0.24982   0.25602
 Alpha virt. eigenvalues --    0.26462   0.27425   0.27546   0.29456   0.30234
 Alpha virt. eigenvalues --    0.30652   0.32243   0.36184   0.38076   0.40077
 Alpha virt. eigenvalues --    0.42444   0.49314   0.49644   0.49698   0.51073
 Alpha virt. eigenvalues --    0.51602   0.52698   0.53036   0.54216   0.54648
 Alpha virt. eigenvalues --    0.56604   0.57583   0.58152   0.58526   0.60240
 Alpha virt. eigenvalues --    0.61551   0.61675   0.62595   0.63852   0.64938
 Alpha virt. eigenvalues --    0.65997   0.66721   0.67181   0.68558   0.69561
 Alpha virt. eigenvalues --    0.71389   0.72089   0.72790   0.73450   0.76113
 Alpha virt. eigenvalues --    0.77219   0.77923   0.78248   0.78750   0.79191
 Alpha virt. eigenvalues --    0.83503   0.84071   0.84810   0.85122   0.85828
 Alpha virt. eigenvalues --    0.85957   0.87042   0.88100   0.89397   0.89963
 Alpha virt. eigenvalues --    0.91588   0.91876   0.92079   0.92577   0.92730
 Alpha virt. eigenvalues --    0.93079   0.93422   0.94073   0.94965   0.95415
 Alpha virt. eigenvalues --    0.96453   0.96784   0.97503   0.97794   0.98525
 Alpha virt. eigenvalues --    0.99339   1.00506   1.01542   1.02185   1.03918
 Alpha virt. eigenvalues --    1.04499   1.05118   1.05929   1.06634   1.08718
 Alpha virt. eigenvalues --    1.11760   1.13939   1.15810   1.18052   1.18828
 Alpha virt. eigenvalues --    1.20750   1.23842   1.24829   1.25503   1.30808
 Alpha virt. eigenvalues --    1.33661   1.35612   1.36083   1.39291   1.41434
 Alpha virt. eigenvalues --    1.44198   1.46280   1.49323   1.52406   1.53668
 Alpha virt. eigenvalues --    1.55377   1.57139   1.61626   1.64816   1.67528
 Alpha virt. eigenvalues --    1.69431   1.70552   1.72099   1.75568   1.76551
 Alpha virt. eigenvalues --    1.76905   1.79725   1.80050   1.80494   1.83947
 Alpha virt. eigenvalues --    1.84813   1.85772   1.87614   1.89495   1.89929
 Alpha virt. eigenvalues --    1.91501   1.92041   1.93306   1.95515   1.96267
 Alpha virt. eigenvalues --    1.98375   2.00796   2.01450   2.02250   2.05276
 Alpha virt. eigenvalues --    2.07529   2.08598   2.10588   2.12584   2.13215
 Alpha virt. eigenvalues --    2.14369   2.18367   2.18714   2.19897   2.20749
 Alpha virt. eigenvalues --    2.21472   2.24435   2.28504   2.28890   2.29183
 Alpha virt. eigenvalues --    2.31007   2.31114   2.31828   2.32824   2.33157
 Alpha virt. eigenvalues --    2.33364   2.34388   2.36456   2.36878   2.37375
 Alpha virt. eigenvalues --    2.39451   2.40841   2.42505   2.45171   2.46769
 Alpha virt. eigenvalues --    2.50182   2.54476   2.54918   2.57455   2.58061
 Alpha virt. eigenvalues --    2.60772   2.66710   2.69747   2.72924   2.73547
 Alpha virt. eigenvalues --    2.74876   2.75644   2.80281   2.80855   2.88084
 Alpha virt. eigenvalues --    2.89889   2.96091   2.98041   3.08476   3.21350
 Alpha virt. eigenvalues --    3.44841   3.98999   4.13245   4.16685   4.20720
 Alpha virt. eigenvalues --    4.21430   4.25121   4.32040   4.32570   4.33141
 Alpha virt. eigenvalues --    4.35257   4.39600   4.44733   4.49417   4.69002
 Alpha virt. eigenvalues --    4.75930   4.84495
          Condensed to atoms (all electrons):
               1          2          3          4          5          6
     1  C    5.179793   0.505640  -0.039961  -0.043915  -0.062968   0.496213
     2  C    0.505640   4.935195   0.455240  -0.062762  -0.048426  -0.008210
     3  C   -0.039961   0.455240   4.840285   0.484809  -0.025077  -0.046968
     4  C   -0.043915  -0.062762   0.484809   4.856159   0.520513  -0.011318
     5  C   -0.062968  -0.048426  -0.025077   0.520513   5.119752   0.515581
     6  C    0.496213  -0.008210  -0.046968  -0.011318   0.515581   4.774617
     7  H    0.355147  -0.043798   0.004189   0.000239   0.005424  -0.048714
     8  H    0.005523   0.000079   0.004620  -0.041444   0.353685  -0.046839
     9  O    0.003914  -0.074209   0.274775  -0.079234   0.003382  -0.000063
    10  H   -0.000139  -0.000956  -0.022660  -0.002646  -0.000054   0.000015
    11  C   -0.049750   0.006027   0.001254   0.005634  -0.054293   0.365816
    12  C    0.004866  -0.000217   0.000004   0.000497  -0.011362  -0.051702
    13  H   -0.000386   0.000009  -0.000003   0.000387   0.001833  -0.009547
    14  H   -0.000076   0.000003   0.000000  -0.000004   0.000533   0.005034
    15  H    0.000375  -0.000016  -0.000020  -0.000249   0.001923  -0.003526
    16  C   -0.004240  -0.000162   0.000019  -0.000129  -0.004266  -0.051105
    17  H    0.003663  -0.000077  -0.000012   0.000001  -0.000250  -0.004405
    18  H    0.000045   0.000004   0.000000   0.000003   0.000032   0.005476
    19  H   -0.000253  -0.000002  -0.000011  -0.000092   0.003941  -0.004664
    20  C   -0.012302   0.000621   0.000011  -0.000219   0.005202  -0.050626
    21  H    0.001583   0.000527  -0.000005   0.000009  -0.000399  -0.010389
    22  H    0.001177  -0.000274  -0.000017  -0.000013   0.000359  -0.002954
    23  H    0.000681  -0.000006   0.000000   0.000003  -0.000098   0.004937
    24  C   -0.056015   0.376280  -0.057906   0.006006   0.000867   0.007189
    25  C   -0.012520  -0.051713   0.006302  -0.000195  -0.000006   0.000949
    26  H    0.000881  -0.007369  -0.000232  -0.000006  -0.000007   0.000288
    27  H    0.000705  -0.007793  -0.000243  -0.000003  -0.000010   0.000265
    28  H    0.000963   0.004543  -0.000094   0.000003   0.000000  -0.000017
    29  C    0.001298  -0.048081  -0.011529  -0.000075   0.000002  -0.000199
    30  H    0.000053   0.004273   0.000250   0.000014   0.000000   0.000002
    31  H   -0.000232  -0.003505   0.002513   0.000080  -0.000003   0.000012
    32  H    0.000849  -0.002077   0.001037  -0.000353  -0.000054  -0.000027
    33  C    0.001763  -0.048132  -0.009868  -0.000094   0.000042  -0.000202
    34  H   -0.000217  -0.003399   0.002425   0.000149  -0.000002   0.000011
    35  H    0.000015   0.003947   0.000402   0.000018  -0.000000   0.000002
    36  H    0.001238  -0.001783   0.001013  -0.000308  -0.000054  -0.000047
    37  C    0.000885   0.008314  -0.055170   0.326312  -0.052739   0.006379
    38  H   -0.000009   0.000047  -0.003952  -0.025319   0.000233  -0.000162
    39  H    0.000014  -0.000068  -0.004324  -0.025425   0.001192  -0.000151
    40  H   -0.000007  -0.000081   0.004386  -0.030711  -0.002618   0.000120
               7          8          9         10         11         12
     1  C    0.355147   0.005523   0.003914  -0.000139  -0.049750   0.004866
     2  C   -0.043798   0.000079  -0.074209  -0.000956   0.006027  -0.000217
     3  C    0.004189   0.004620   0.274775  -0.022660   0.001254   0.000004
     4  C    0.000239  -0.041444  -0.079234  -0.002646   0.005634   0.000497
     5  C    0.005424   0.353685   0.003382  -0.000054  -0.054293  -0.011362
     6  C   -0.048714  -0.046839  -0.000063   0.000015   0.365816  -0.051702
     7  H    0.594886  -0.000168  -0.000046   0.000004  -0.012420   0.000229
     8  H   -0.000168   0.600737  -0.000052   0.000003  -0.012462   0.005216
     9  O   -0.000046  -0.000052   8.316564   0.235097   0.000001  -0.000000
    10  H    0.000004   0.000003   0.235097   0.368504  -0.000000   0.000000
    11  C   -0.012420  -0.012462   0.000001  -0.000000   4.873240   0.374078
    12  C    0.000229   0.005216  -0.000000   0.000000   0.374078   5.170331
    13  H   -0.000003   0.002376   0.000000   0.000000  -0.023989   0.367202
    14  H   -0.000011  -0.000128  -0.000000  -0.000000  -0.028689   0.364981
    15  H    0.000002   0.000555  -0.000000  -0.000000  -0.031877   0.371981
    16  C    0.000401   0.000380  -0.000000  -0.000000   0.380655  -0.062117
    17  H    0.000323   0.000007  -0.000000   0.000000  -0.029349   0.006515
    18  H   -0.000060  -0.000063   0.000000   0.000000  -0.031587  -0.004486
    19  H    0.000012   0.000488  -0.000000   0.000000  -0.029095  -0.006343
    20  C    0.005868   0.000239  -0.000000   0.000000   0.374792  -0.062178
    21  H    0.002458  -0.000004   0.000000   0.000000  -0.023687   0.006307
    22  H    0.000604  -0.000002  -0.000000  -0.000000  -0.031934  -0.003550
    23  H   -0.000181  -0.000010  -0.000000  -0.000000  -0.028164  -0.008040
    24  C   -0.018030   0.000011  -0.008621  -0.000724  -0.000206   0.000002
    25  C    0.009578  -0.000000   0.000103   0.000032   0.000007  -0.000000
    26  H    0.001378   0.000000   0.000000  -0.000001  -0.000019  -0.000000
    27  H    0.001724   0.000000   0.000000  -0.000002   0.000019   0.000000
    28  H    0.000019  -0.000000  -0.000002   0.000000  -0.000000   0.000000
    29  C    0.000426   0.000000  -0.001180  -0.000200   0.000004  -0.000000
    30  H   -0.000031   0.000000   0.000437  -0.000021  -0.000000   0.000000
    31  H   -0.000015   0.000000   0.003299  -0.000199  -0.000000  -0.000000
    32  H    0.000029  -0.000000  -0.001105   0.000099   0.000001  -0.000000
    33  C    0.000421   0.000000   0.000962   0.003484   0.000001  -0.000000
    34  H   -0.000018   0.000000   0.005234   0.001696  -0.000000   0.000000
    35  H   -0.000044   0.000000   0.000427  -0.000173  -0.000000   0.000000
    36  H    0.000048  -0.000000  -0.000947   0.000814   0.000002  -0.000000
    37  C    0.000012  -0.009795   0.000966   0.000437  -0.000217   0.000003
    38  H   -0.000000   0.000150   0.003050  -0.000483   0.000004  -0.000001
    39  H   -0.000000   0.000129   0.002545   0.001667   0.000002   0.000000
    40  H   -0.000000   0.006586   0.000453  -0.000025  -0.000005  -0.000004
              13         14         15         16         17         18
     1  C   -0.000386  -0.000076   0.000375  -0.004240   0.003663   0.000045
     2  C    0.000009   0.000003  -0.000016  -0.000162  -0.000077   0.000004
     3  C   -0.000003   0.000000  -0.000020   0.000019  -0.000012   0.000000
     4  C    0.000387  -0.000004  -0.000249  -0.000129   0.000001   0.000003
     5  C    0.001833   0.000533   0.001923  -0.004266  -0.000250   0.000032
     6  C   -0.009547   0.005034  -0.003526  -0.051105  -0.004405   0.005476
     7  H   -0.000003  -0.000011   0.000002   0.000401   0.000323  -0.000060
     8  H    0.002376  -0.000128   0.000555   0.000380   0.000007  -0.000063
     9  O    0.000000  -0.000000  -0.000000  -0.000000  -0.000000   0.000000
    10  H    0.000000  -0.000000  -0.000000  -0.000000   0.000000   0.000000
    11  C   -0.023989  -0.028689  -0.031877   0.380655  -0.029349  -0.031587
    12  C    0.367202   0.364981   0.371981  -0.062117   0.006515  -0.004486
    13  H    0.568278  -0.029060  -0.031925  -0.007345   0.000031   0.000025
    14  H   -0.029060   0.573909  -0.027708  -0.002383  -0.000142   0.002834
    15  H   -0.031925  -0.027708   0.560775   0.006384  -0.000234  -0.000102
    16  C   -0.007345  -0.002383   0.006384   5.146613   0.369049   0.364944
    17  H    0.000031  -0.000142  -0.000234   0.369049   0.568234  -0.029609
    18  H    0.000025   0.002834  -0.000102   0.364944  -0.029609   0.578831
    19  H    0.005337  -0.000261  -0.000068   0.368955  -0.028921  -0.029548
    20  C    0.006261  -0.008442  -0.003131  -0.062239  -0.006406  -0.004416
    21  H   -0.000235   0.000056  -0.000128  -0.006986   0.005361  -0.000012
    22  H   -0.000108  -0.000023   0.002966   0.006385  -0.000065  -0.000107
    23  H    0.000025   0.006020  -0.000060  -0.002837  -0.000259   0.003029
    24  C    0.000000  -0.000000   0.000000   0.000002   0.000004  -0.000000
    25  C    0.000000   0.000000  -0.000000  -0.000001  -0.000008   0.000000
    26  H   -0.000000   0.000000  -0.000000   0.000002  -0.000002  -0.000000
    27  H   -0.000000   0.000000  -0.000000  -0.000007   0.000031   0.000000
    28  H    0.000000   0.000000   0.000000   0.000000  -0.000000  -0.000000
    29  C   -0.000000   0.000000   0.000000  -0.000000   0.000000   0.000000
    30  H    0.000000  -0.000000  -0.000000  -0.000000  -0.000000   0.000000
    31  H   -0.000000   0.000000   0.000000   0.000000  -0.000000  -0.000000
    32  H    0.000000  -0.000000  -0.000000  -0.000000  -0.000000   0.000000
    33  C    0.000000  -0.000000  -0.000000   0.000000  -0.000001   0.000000
    34  H   -0.000000   0.000000   0.000000  -0.000000   0.000000   0.000000
    35  H   -0.000000   0.000000   0.000000   0.000000   0.000000  -0.000000
    36  H   -0.000000   0.000000   0.000000  -0.000000   0.000001   0.000000
    37  C   -0.000001  -0.000000   0.000006   0.000001   0.000000  -0.000000
    38  H   -0.000000  -0.000000  -0.000001  -0.000000  -0.000000   0.000000
    39  H   -0.000000   0.000000   0.000000   0.000000   0.000000   0.000000
    40  H   -0.000011   0.000000  -0.000000  -0.000000   0.000000  -0.000000
              19         20         21         22         23         24
     1  C   -0.000253  -0.012302   0.001583   0.001177   0.000681  -0.056015
     2  C   -0.000002   0.000621   0.000527  -0.000274  -0.000006   0.376280
     3  C   -0.000011   0.000011  -0.000005  -0.000017   0.000000  -0.057906
     4  C   -0.000092  -0.000219   0.000009  -0.000013   0.000003   0.006006
     5  C    0.003941   0.005202  -0.000399   0.000359  -0.000098   0.000867
     6  C   -0.004664  -0.050626  -0.010389  -0.002954   0.004937   0.007189
     7  H    0.000012   0.005868   0.002458   0.000604  -0.000181  -0.018030
     8  H    0.000488   0.000239  -0.000004  -0.000002  -0.000010   0.000011
     9  O   -0.000000  -0.000000   0.000000  -0.000000  -0.000000  -0.008621
    10  H    0.000000   0.000000   0.000000  -0.000000  -0.000000  -0.000724
    11  C   -0.029095   0.374792  -0.023687  -0.031934  -0.028164  -0.000206
    12  C   -0.006343  -0.062178   0.006307  -0.003550  -0.008040   0.000002
    13  H    0.005337   0.006261  -0.000235  -0.000108   0.000025   0.000000
    14  H   -0.000261  -0.008442   0.000056  -0.000023   0.006020  -0.000000
    15  H   -0.000068  -0.003131  -0.000128   0.002966  -0.000060   0.000000
    16  C    0.368955  -0.062239  -0.006986   0.006385  -0.002837   0.000002
    17  H   -0.028921  -0.006406   0.005361  -0.000065  -0.000259   0.000004
    18  H   -0.029548  -0.004416  -0.000012  -0.000107   0.003029  -0.000000
    19  H    0.567303   0.006486   0.000007  -0.000233  -0.000126   0.000000
    20  C    0.006486   5.168952   0.366676   0.372798   0.363791   0.000007
    21  H    0.000007   0.366676   0.567602  -0.032216  -0.028849   0.000005
    22  H   -0.000233   0.372798  -0.032216   0.561865  -0.028151   0.000011
    23  H   -0.000126   0.363791  -0.028849  -0.028151   0.575199  -0.000000
    24  C    0.000000   0.000007   0.000005   0.000011  -0.000000   4.848899
    25  C    0.000000  -0.000080  -0.000068  -0.000030   0.000001   0.387813
    26  H   -0.000000   0.000081  -0.000018   0.000158  -0.000001  -0.027373
    27  H   -0.000000  -0.000043   0.000118  -0.000012  -0.000001  -0.026885
    28  H    0.000000  -0.000000  -0.000000  -0.000000   0.000000  -0.023046
    29  C   -0.000000  -0.000001   0.000000  -0.000000  -0.000000   0.363056
    30  H    0.000000   0.000000   0.000000   0.000000  -0.000000  -0.035474
    31  H    0.000000   0.000000  -0.000000   0.000000   0.000000  -0.023716
    32  H    0.000000   0.000000  -0.000000   0.000001   0.000000  -0.035330
    33  C    0.000000   0.000000  -0.000001   0.000000   0.000000   0.356386
    34  H    0.000000   0.000000   0.000000  -0.000000  -0.000000  -0.026439
    35  H   -0.000000  -0.000000   0.000000   0.000000  -0.000000  -0.034055
    36  H   -0.000000  -0.000000  -0.000000  -0.000000   0.000000  -0.036632
    37  C    0.000003   0.000002   0.000000   0.000000  -0.000000  -0.000176
    38  H    0.000000  -0.000000  -0.000000   0.000000   0.000000   0.000007
    39  H   -0.000001  -0.000000   0.000000  -0.000000  -0.000000   0.000006
    40  H    0.000000   0.000000   0.000000   0.000000  -0.000000   0.000002
              25         26         27         28         29         30
     1  C   -0.012520   0.000881   0.000705   0.000963   0.001298   0.000053
     2  C   -0.051713  -0.007369  -0.007793   0.004543  -0.048081   0.004273
     3  C    0.006302  -0.000232  -0.000243  -0.000094  -0.011529   0.000250
     4  C   -0.000195  -0.000006  -0.000003   0.000003  -0.000075   0.000014
     5  C   -0.000006  -0.000007  -0.000010   0.000000   0.000002   0.000000
     6  C    0.000949   0.000288   0.000265  -0.000017  -0.000199   0.000002
     7  H    0.009578   0.001378   0.001724   0.000019   0.000426  -0.000031
     8  H   -0.000000   0.000000   0.000000  -0.000000   0.000000   0.000000
     9  O    0.000103   0.000000   0.000000  -0.000002  -0.001180   0.000437
    10  H    0.000032  -0.000001  -0.000002   0.000000  -0.000200  -0.000021
    11  C    0.000007  -0.000019   0.000019  -0.000000   0.000004  -0.000000
    12  C   -0.000000  -0.000000   0.000000   0.000000  -0.000000   0.000000
    13  H    0.000000  -0.000000  -0.000000   0.000000  -0.000000   0.000000
    14  H    0.000000   0.000000   0.000000   0.000000   0.000000  -0.000000
    15  H   -0.000000  -0.000000  -0.000000   0.000000   0.000000  -0.000000
    16  C   -0.000001   0.000002  -0.000007   0.000000  -0.000000  -0.000000
    17  H   -0.000008  -0.000002   0.000031  -0.000000   0.000000  -0.000000
    18  H    0.000000  -0.000000   0.000000  -0.000000   0.000000   0.000000
    19  H    0.000000  -0.000000  -0.000000   0.000000  -0.000000   0.000000
    20  C   -0.000080   0.000081  -0.000043  -0.000000  -0.000001   0.000000
    21  H   -0.000068  -0.000018   0.000118  -0.000000   0.000000   0.000000
    22  H   -0.000030   0.000158  -0.000012  -0.000000  -0.000000   0.000000
    23  H    0.000001  -0.000001  -0.000001   0.000000  -0.000000  -0.000000
    24  C    0.387813  -0.027373  -0.026885  -0.023046   0.363056  -0.035474
    25  C    5.167250   0.370325   0.367191   0.360375  -0.057872  -0.011133
    26  H    0.370325   0.568408  -0.036677  -0.029034  -0.005838   0.000915
    27  H    0.367191  -0.036677   0.576274  -0.029627   0.006843   0.000272
    28  H    0.360375  -0.029034  -0.029627   0.572396  -0.006870   0.005252
    29  C   -0.057872  -0.005838   0.006843  -0.006870   5.175124   0.363160
    30  H   -0.011133   0.000915   0.000272   0.005252   0.363160   0.589517
    31  H    0.005249  -0.000006  -0.000249   0.000097   0.370145  -0.029880
    32  H    0.001120   0.001730  -0.000260  -0.000082   0.373661  -0.028322
    33  C   -0.058092   0.006801  -0.006092  -0.006754  -0.061150   0.001825
    34  H    0.005486  -0.000244  -0.000022   0.000067  -0.014445   0.000395
    35  H   -0.010392   0.000195   0.000865   0.005486   0.001423   0.000505
    36  H    0.000518  -0.000251   0.001980  -0.000104   0.006408  -0.000238
    37  C    0.000001   0.000000   0.000000  -0.000000   0.000006  -0.000000
    38  H   -0.000000   0.000000  -0.000000  -0.000000  -0.000005   0.000000
    39  H   -0.000000  -0.000000   0.000000  -0.000000   0.000002  -0.000000
    40  H   -0.000000  -0.000000  -0.000000   0.000000  -0.000000  -0.000000
              31         32         33         34         35         36
     1  C   -0.000232   0.000849   0.001763  -0.000217   0.000015   0.001238
     2  C   -0.003505  -0.002077  -0.048132  -0.003399   0.003947  -0.001783
     3  C    0.002513   0.001037  -0.009868   0.002425   0.000402   0.001013
     4  C    0.000080  -0.000353  -0.000094   0.000149   0.000018  -0.000308
     5  C   -0.000003  -0.000054   0.000042  -0.000002  -0.000000  -0.000054
     6  C    0.000012  -0.000027  -0.000202   0.000011   0.000002  -0.000047
     7  H   -0.000015   0.000029   0.000421  -0.000018  -0.000044   0.000048
     8  H    0.000000  -0.000000   0.000000   0.000000   0.000000  -0.000000
     9  O    0.003299  -0.001105   0.000962   0.005234   0.000427  -0.000947
    10  H   -0.000199   0.000099   0.003484   0.001696  -0.000173   0.000814
    11  C   -0.000000   0.000001   0.000001  -0.000000  -0.000000   0.000002
    12  C   -0.000000  -0.000000  -0.000000   0.000000   0.000000  -0.000000
    13  H   -0.000000   0.000000   0.000000  -0.000000  -0.000000  -0.000000
    14  H    0.000000  -0.000000  -0.000000   0.000000   0.000000   0.000000
    15  H    0.000000  -0.000000  -0.000000   0.000000   0.000000   0.000000
    16  C    0.000000  -0.000000   0.000000  -0.000000   0.000000  -0.000000
    17  H   -0.000000  -0.000000  -0.000001   0.000000   0.000000   0.000001
    18  H   -0.000000   0.000000   0.000000   0.000000  -0.000000   0.000000
    19  H    0.000000   0.000000   0.000000   0.000000  -0.000000  -0.000000
    20  C    0.000000   0.000000   0.000000   0.000000  -0.000000  -0.000000
    21  H   -0.000000  -0.000000  -0.000001   0.000000   0.000000  -0.000000
    22  H    0.000000   0.000001   0.000000  -0.000000   0.000000  -0.000000
    23  H    0.000000   0.000000   0.000000  -0.000000  -0.000000   0.000000
    24  C   -0.023716  -0.035330   0.356386  -0.026439  -0.034055  -0.036632
    25  C    0.005249   0.001120  -0.058092   0.005486  -0.010392   0.000518
    26  H   -0.000006   0.001730   0.006801  -0.000244   0.000195  -0.000251
    27  H   -0.000249  -0.000260  -0.006092  -0.000022   0.000865   0.001980
    28  H    0.000097  -0.000082  -0.006754   0.000067   0.005486  -0.000104
    29  C    0.370145   0.373661  -0.061150  -0.014445   0.001423   0.006408
    30  H   -0.029880  -0.028322   0.001825   0.000395   0.000505  -0.000238
    31  H    0.549426  -0.025488  -0.014668   0.008286   0.000324   0.000388
    32  H   -0.025488   0.555730   0.005962   0.000338  -0.000218  -0.000290
    33  C   -0.014668   0.005962   5.206643   0.364583   0.364013   0.369143
    34  H    0.008286   0.000338   0.364583   0.565917  -0.026152  -0.031140
    35  H    0.000324  -0.000218   0.364013  -0.026152   0.571235  -0.026498
    36  H    0.000388  -0.000290   0.369143  -0.031140  -0.026498   0.568534
    37  C    0.000000   0.000009  -0.000007  -0.000004  -0.000000   0.000008
    38  H    0.000001   0.000004   0.000002  -0.000000  -0.000000  -0.000000
    39  H   -0.000001  -0.000000  -0.000007  -0.000002   0.000000   0.000003
    40  H    0.000000  -0.000000  -0.000000  -0.000000  -0.000000  -0.000000
              37         38         39         40
     1  C    0.000885  -0.000009   0.000014  -0.000007
     2  C    0.008314   0.000047  -0.000068  -0.000081
     3  C   -0.055170  -0.003952  -0.004324   0.004386
     4  C    0.326312  -0.025319  -0.025425  -0.030711
     5  C   -0.052739   0.000233   0.001192  -0.002618
     6  C    0.006379  -0.000162  -0.000151   0.000120
     7  H    0.000012  -0.000000  -0.000000  -0.000000
     8  H   -0.009795   0.000150   0.000129   0.006586
     9  O    0.000966   0.003050   0.002545   0.000453
    10  H    0.000437  -0.000483   0.001667  -0.000025
    11  C   -0.000217   0.000004   0.000002  -0.000005
    12  C    0.000003  -0.000001   0.000000  -0.000004
    13  H   -0.000001  -0.000000  -0.000000  -0.000011
    14  H   -0.000000  -0.000000   0.000000   0.000000
    15  H    0.000006  -0.000001   0.000000  -0.000000
    16  C    0.000001  -0.000000   0.000000  -0.000000
    17  H    0.000000  -0.000000   0.000000   0.000000
    18  H   -0.000000   0.000000   0.000000  -0.000000
    19  H    0.000003   0.000000  -0.000001   0.000000
    20  C    0.000002  -0.000000  -0.000000   0.000000
    21  H    0.000000  -0.000000   0.000000   0.000000
    22  H    0.000000   0.000000  -0.000000   0.000000
    23  H   -0.000000   0.000000  -0.000000  -0.000000
    24  C   -0.000176   0.000007   0.000006   0.000002
    25  C    0.000001  -0.000000  -0.000000  -0.000000
    26  H    0.000000   0.000000  -0.000000  -0.000000
    27  H    0.000000  -0.000000   0.000000  -0.000000
    28  H   -0.000000  -0.000000  -0.000000   0.000000
    29  C    0.000006  -0.000005   0.000002  -0.000000
    30  H   -0.000000   0.000000  -0.000000  -0.000000
    31  H    0.000000   0.000001  -0.000001   0.000000
    32  H    0.000009   0.000004  -0.000000  -0.000000
    33  C   -0.000007   0.000002  -0.000007  -0.000000
    34  H   -0.000004  -0.000000  -0.000002  -0.000000
    35  H   -0.000000  -0.000000   0.000000  -0.000000
    36  H    0.000008  -0.000000   0.000003  -0.000000
    37  C    5.186731   0.371595   0.365677   0.363621
    38  H    0.371595   0.536243  -0.029805  -0.027430
    39  H    0.365677  -0.029805   0.558985  -0.028684
    40  H    0.363621  -0.027430  -0.028684   0.558485
 Mulliken charges:
               1
     1  C   -0.284296
     2  C    0.112367
     3  C    0.194517
     4  C    0.123678
     5  C   -0.271811
     6  C    0.168929
     7  H    0.140117
     8  H    0.130182
     9  O   -0.685751
    10  H    0.416431
    11  C    0.006207
    12  C   -0.462212
    13  H    0.150849
    14  H    0.143557
    15  H    0.154076
    16  C   -0.439976
    17  H    0.146520
    18  H    0.144769
    19  H    0.147083
    20  C   -0.461704
    21  H    0.152289
    22  H    0.153363
    23  H    0.143097
    24  C    0.064077
    25  C   -0.480189
    26  H    0.155916
    27  H    0.151642
    28  H    0.146428
    29  C   -0.454110
    30  H    0.138229
    31  H    0.158142
    32  H    0.153039
    33  C   -0.476967
    34  H    0.147499
    35  H    0.148676
    36  H    0.148195
    37  C   -0.512858
    38  H    0.175832
    39  H    0.158245
    40  H    0.155924
 Sum of Mulliken charges =  -0.00000
 Mulliken charges with hydrogens summed into heavy atoms:
               1
     1  C   -0.144180
     2  C    0.112367
     3  C    0.194517
     4  C    0.123678
     5  C   -0.141629
     6  C    0.168929
     9  O   -0.269320
    11  C    0.006207
    12  C   -0.013729
    16  C   -0.001605
    20  C   -0.012955
    24  C    0.064077
    25  C   -0.026204
    29  C   -0.004700
    33  C   -0.032597
    37  C   -0.022857
 Electronic spatial extent (au):  <R**2>=           4182.0119
 Charge=             -0.0000 electrons
 Dipole moment (field-independent basis, Debye):
    X=              0.4633    Y=             -0.1576    Z=              1.4640  Tot=              1.5436
 Quadrupole moment (field-independent basis, Debye-Ang):
   XX=            -96.7773   YY=            -96.3055   ZZ=           -100.5906
   XY=              0.7063   XZ=             -4.5913   YZ=              2.8489
 Traceless Quadrupole moment (field-independent basis, Debye-Ang):
   XX=              1.1139   YY=              1.5856   ZZ=             -2.6995
   XY=              0.7063   XZ=             -4.5913   YZ=              2.8489
 Octapole moment (field-independent basis, Debye-Ang**2):
  XXX=             -6.1867  YYY=             14.8908  ZZZ=             -0.0651  XYY=             -3.6807
  XXY=              1.3816  XXZ=             13.9558  XZZ=             -8.0744  YZZ=              5.5932
  YYZ=              7.2183  XYZ=             -8.0192
 Hexadecapole moment (field-independent basis, Debye-Ang**3):
 XXXX=          -3412.6916 YYYY=          -1753.1645 ZZZZ=           -466.3679 XXXY=            -35.2303
 XXXZ=            -41.8668 YYYX=             -5.1829 YYYZ=              6.4129 ZZZX=            -10.0903
 ZZZY=              4.7347 XXYY=           -849.6839 XXZZ=           -664.5929 YYZZ=           -363.9822
 XXYZ=             31.2659 YYXZ=            -14.5485 ZZXY=            -17.5278
 N-N= 1.176545055707D+03 E-N=-3.886310775055D+03  KE= 6.556822226771D+02
 D1PCM: PCM CHGder 1st derivatives, ID1Alg=3 FixD1E=F DoIter=F DoCFld=F I1PDM=0.
 Calling FoFJK, ICntrl=      2127 FMM=F ISym2X=0 I1Cent= 0 IOpClX= 0 NMat=1 NMatS=1 NMatT=0.
 ***** Axes restored to original set *****
 -------------------------------------------------------------------
 Center     Atomic                   Forces (Hartrees/Bohr)
 Number     Number              X              Y              Z
 -------------------------------------------------------------------
      1        6          -0.000124861    0.003561106   -0.000871524
      2        6           0.008608361   -0.019400238    0.000369261
      3        6           0.011778011    0.002277153   -0.007582890
      4        6           0.013444607    0.024983245    0.000696953
      5        6           0.001182654   -0.000949631   -0.000639932
      6        6          -0.017932980    0.001109626   -0.000949041
      7        1           0.007567363    0.014968795   -0.000004965
      8        1           0.008561500   -0.007972590   -0.000039379
      9        8          -0.023895921    0.004798799    0.015611427
     10        1           0.000149488    0.000601585   -0.011103568
     11        6           0.006061382   -0.000342520    0.003647174
     12        6           0.005968745   -0.019154077   -0.010657481
     13        1          -0.000807659    0.016789497   -0.005829831
     14        1          -0.018090805    0.001688673    0.003160409
     15        1           0.005400876    0.004738694    0.016691984
     16        6           0.007919196   -0.000344162    0.021200153
     17        1           0.004168843   -0.013467821   -0.011937277
     18        1          -0.019121898    0.000218159   -0.003192444
     19        1           0.004445259    0.013481755   -0.011685310
     20        6           0.005936647    0.019628979   -0.010560127
     21        1          -0.000670680   -0.016574583   -0.005812206
     22        1           0.005083131   -0.004666247    0.016950367
     23        1          -0.018121954   -0.001942784    0.002482371
     24        6          -0.006802079    0.004306736    0.000668262
     25        6           0.016466654    0.016563445   -0.001279197
     26        1          -0.010833164   -0.003982500    0.013954823
[...]
 777,0.00000022,-0.00000697,0.00000314,-0.00000175,0.00000335,0.0000069
 7,-0.00000346,0.00000121,-0.00000070,0.00000673,-0.00000553,-0.0000017
 5,0.00000182,-0.00380131,-0.00205518,-0.00493039,0.00022294,0.00000606
 ,0.00081382,0.00004292,-0.00014191,-0.00010605,-0.00020169,0.00025239,
 0.00022087,0.00009312,0.00002576,0.00008640,0.00098020,-0.00005136,-0.
 00071171,-0.00025387,0.00025967,-0.00021444,0.00021607,0.00007240,0.00
 024708,-0.00025815,0.00054237,-0.00038797,-0.00816379,-0.05058056,-0.0
 0964319,-0.01395210,0.00045535,-0.02047182,0.01756586,0.00276882,0.023
 99146,0.00815514,0.04882001,0.00037006,-0.00022462,0.00029645,-0.00103
 093,0.00148107,0.00074847,-0.00039652,-0.00028898,0.00013807,-0.000061
 03,-0.00006759,0.00002694,-0.00000004,-0.00000622,-0.00000100,0.000120
 51,0.00002384,-0.00008182,0.00004006,0.00000704,-0.00003785,0.00000463
 ,-0.00000168,-0.00000038,0.00023466,-0.00004018,-0.00001349,0.00003515
 ,-0.00001762,0.00000100,-0.00000800,-0.00002464,-0.00000912,0.00000920
 ,0.00000496,-0.00001044,-0.00000125,0.00000530,0.00000192,0.00000375,-
 0.00000079,0.00000085,-0.00000215,-0.00000205,0.00001220,0.00001096,-0
 .00001370,-0.00002743,0.00000505,0.00000637,0.00002032,-0.00000333,0.0
 0000025,0.00000993,0.00000090,0.00000221,0.00000202,0.00000523,-0.0000
 1661,-0.00003261,0.00000865,0.00001360,0.00001283,-0.00000240,-0.00000
 375,0.00001008,-0.00000199,0.00000522,0.00000729,-0.01665770,-0.001089
 80,-0.02144144,-0.00170563,-0.00063550,0.00073585,0.00020396,-0.000123
 12,0.00041330,0.00089609,0.00055710,0.00032614,0.00009318,0.00004408,-
 0.00005162,0.00500732,-0.00118078,-0.00392683,0.00014101,0.00013600,0.
 00037452,0.00000728,-0.00004223,0.00021659,-0.00111886,-0.00013507,-0.
 00172034,-0.12472692,-0.00987877,-0.21280467,0.00329420,-0.00062194,0.
 00522729,-0.00116523,0.00036128,-0.00166254,0.13636101,0.01178854,0.23
 323835,-0.00142735,-0.00038766,0.00007114,-0.00179920,0.00464096,-0.00
 022669,0.00990184,0.00790573,-0.00120773,-0.11780765,-0.04601354,0.007
 25010,-0.01876266,-0.03070953,0.00446047,-0.00340897,0.00235696,0.0001
 8491,0.00013050,-0.00004253,-0.00003004,0.00101372,-0.00157097,-0.0000
 4099,0.00074981,0.00462683,-0.00076898,0.00041248,0.00114237,-0.000001
 11,0.00005902,-0.00128282,0.00016756,0.00009573,-0.00003128,-0.0000533
 3,0.00000682,0.00001884,0.00002137,-0.00001100,-0.00000829,0.00000171,
 -0.00000041,0.00002147,0.00001366,0.00009471,-0.00001044,0.00004614,-0
 .00000170,0.00001767,-0.00001811,-0.00001168,-0.00001122,0.00000132,0.
 00000332,0.00000951,-0.00002641,-0.00038596,0.00014391,-0.00000425,0.0
 0001071,-0.00000732,-0.00001279,0.00001245,-0.00000196,0.00001266,-0.0
 0007353,-0.00012272,0.00001433,0.00090050,0.00046393,-0.00008860,-0.00
 034431,0.00021848,-0.00001612,0.00002979,0.00000115,-0.00003668,0.0000
 3089,0.00000736,0.00003322,0.00009077,0.00015155,-0.00002321,-0.000002
 94,0.00006643,0.00009939,-0.00003969,0.00005519,-0.00005435,0.00006088
 ,-0.00003596,0.00006962,0.00002625,0.00001690,-0.00003850,-0.00000848,
 0.00003329,-0.00011170,0.00005733,-0.00005207,-0.00006268,-0.00003572,
 0.00006696,0.00004199,0.00002802,0.00002390,0.00003052,0.55234452,0.00
 106353,-0.00040690,-0.00008662,0.00342721,-0.00165457,0.00074318,-0.00
 700800,-0.03053757,0.00415359,-0.05341215,-0.17644125,0.01444197,-0.00
 847769,-0.00224167,0.00098427,0.00192465,0.00255467,0.00054913,-0.0000
 6985,-0.00001727,-0.00008065,0.00209671,0.00079311,-0.00070242,-0.0080
 9013,-0.00478861,0.00030583,0.00095924,0.00233088,0.00011713,-0.000106
 44,0.00037052,0.00002103,0.00004335,0.00004697,0.00004389,-0.00000526,
 -0.00000087,-0.00000654,0.00004206,-0.00002570,-0.00002655,-0.00000928
 ,-0.00000174,0.00000701,0.00002426,0.00006015,-0.00007157,-0.00000979,
 -0.00000348,-0.00000557,0.00004238,-0.00002756,0.00002886,-0.00000935,
 -0.00001041,0.00000464,0.00017040,-0.00006497,-0.00000828,-0.00001847,
 -0.00002105,-0.00000508,-0.00001587,-0.00001245,0.00000961,0.00007369,
 0.00004868,-0.00001707,-0.00087842,-0.00025861,0.00007072,0.00024994,-
 0.00017612,-0.00000318,-0.00001959,-0.00000463,0.00003509,-0.00002729,
 -0.00001767,-0.00003065,-0.00008713,-0.00006925,0.00000608,-0.00001926
 ,0.00008800,-0.00005108,-0.00002245,0.00000009,-0.00000583,-0.00002240
 ,-0.00003240,0.00001881,0.00000768,-0.00001254,0.00003037,-0.00000749,
 0.00007275,0.00003006,-0.00001804,-0.00003730,-0.00000472,-0.00002180,
 0.00000290,0.00000380,0.00000229,-0.00002251,-0.00002968,-0.04651177,0
 .52332753,-0.00009755,-0.00002808,-0.00077507,-0.00008603,0.00069428,0
 .00585439,0.00052521,0.00355056,0.00232377,0.00811091,0.01414382,-0.07
 274399,0.00187651,0.00188296,0.00298177,0.00023546,0.00053151,0.007874
 27,-0.00002687,-0.00008169,-0.00072442,-0.00046750,-0.00055390,-0.0044
 3581,0.00070969,-0.00020783,-0.00497137,0.00001944,0.00011054,0.003654
 97,0.00003076,0.00006865,0.00050531,0.00005235,-0.00012546,-0.00004576
 ,0.00001923,0.00004399,-0.00002278,0.00000368,0.00003877,-0.00000349,0
 .00000114,0.00000052,-0.00000124,-0.00007217,0.00010218,-0.00005799,0.
 00000118,-0.00000144,0.00000179,-0.00001273,-0.00003227,-0.00000096,-0
 .00001928,-0.00004763,-0.00000971,-0.00000739,-0.00000726,-0.00007576,
 -0.00000708,-0.00002729,0.00000160,0.00000985,0.00003081,-0.00000875,-
 0.00000855,-0.00000914,-0.00007106,0.00006754,0.00001635,0.00003920,-0
 .00001980,-0.00000186,-0.00011520,0.00002280,0.00002368,-0.00000629,-0
 .00001981,-0.00002140,0.00000566,0.00000452,-0.00000360,-0.00004719,-0
 .00003580,0.00009194,-0.00002355,0.00000252,-0.00001128,-0.00001122,-0
 .00002225,0.00001686,0.00001350,0.00001035,0.00001209,-0.00001678,0.00
 003816,-0.00011804,-0.00000273,0.00002371,-0.00000089,0.00002189,0.000
 00446,0.00000251,-0.00001802,-0.00001473,-0.00001263,-0.00000857,0.004
 76302,0.00343227,0.53605421,-0.00018481,-0.00001656,-0.00000915,-0.000
 21381,-0.00019549,0.00002949,-0.00185867,0.00194210,0.00048023,-0.0120
 3131,-0.00543300,-0.00981481,0.00027316,-0.00246191,-0.00033104,-0.000
 43579,-0.00026731,0.00112306,-0.00000218,-0.00005368,-0.00004869,0.000
 11702,-0.00017237,-0.00064715,0.00180152,0.00003983,0.00024794,0.00013
 975,0.00052267,-0.00037812,0.00014569,-0.00019958,0.00005443,-0.000028
 63,-0.00002780,-0.00005503,0.00000610,0.00000729,-0.00002483,-0.000029
 96,0.00002148,0.00003108,-0.00000231,-0.00002378,0.00001973,-0.0000388
 9,0.00003625,0.00003287,0.00000898,-0.00000096,0.00000963,-0.00004652,
 -0.00000399,-0.00001827,0.00001857,-0.00002533,0.00000199,-0.00010527,
 0.00005902,-0.00000209,0.00001188,0.00000540,0.00000874,0.00001261,-0.
 00000243,-0.00000439,-0.00004754,-0.00003178,-0.00000459,-0.00008704,0
 .00008838,-0.00001874,0.00004875,-0.00003376,-0.00000340,-0.00000489,0
 .00000581,-0.00000772,0.00000409,0.00001383,0.00001576,0.00000738,-0.0
 0003553,0.00000209,0.00001489,-0.00004633,-0.00004019,0.00002382,-0.00
 001658,0.00003154,-0.00000053,0.00001493,-0.00002636,-0.00001865,-0.00
 000981,0.00001446,0.00000807,-0.00003723,0.00003629,-0.00000569,0.0000
 3537,0.00001303,0.00002576,-0.00002970,-0.00001770,-0.00000918,0.00000
 527,0.00000884,-0.14092094,-0.02487954,-0.11923485,0.15329570,-0.00078
 270,-0.00005916,-0.00012456,0.00023978,0.00070421,0.00098213,-0.003414
 37,-0.00010904,0.00024718,-0.01826980,-0.00532857,-0.02124952,0.000906
 00,-0.00246296,-0.00042317,-0.00048912,-0.00045177,0.00112060,0.000003
 56,-0.00000604,-0.00005498,-0.00016955,0.00015437,-0.00033504,0.002307
 83,0.00078551,0.00006673,0.00111717,-0.00235350,-0.00158010,0.00015638
 ,-0.00023877,0.00016589,-0.00001654,-0.00001361,-0.00004991,0.00001466
 ,-0.00000105,-0.00000204,-0.00002809,0.00001237,0.00001997,0.00000288,
 -0.00000581,0.00000146,-0.00002472,-0.00000020,0.00002589,0.00000663,-
 0.00000366,0.00000285,-0.00002839,0.00000443,-0.00001700,-0.00000091,-
 0.00000095,0.00000022,-0.00011057,0.00004451,-0.00002032,0.00001398,0.
 00000425,0.00001095,0.00001450,0.00001439,-0.00001367,-0.00004642,-0.0
 0002805,-0.00000838,-0.00006421,0.00006506,-0.00005087,0.00001828,-0.0
 0004295,-0.00000922,0.00001027,0.00001358,-0.00002347,0.00001000,0.000
 01878,0.00002173,0.00001672,-0.00002638,-0.00000638,-0.00004183,-0.000
 02634,-0.00003793,0.00002740,0.00000437,0.00001994,0.00003555,-0.00000
 046,0.00001189,-0.00000736,-0.00000079,-0.00000193,-0.00001470,-0.0000
 5270,0.00004647,0.00003519,-0.00000724,-0.00003269,0.00002904,-0.00000
 734,-0.00001940,0.00000489,0.00001723,0.00001491,-0.02792520,-0.056916
 85,-0.03620536,0.03203515,0.06143153,-0.00005171,0.00008879,-0.0000108
 1,0.00021069,-0.00018939,-0.00043526,-0.00186499,0.00041513,0.00086670
 ,0.00442833,-0.00042931,0.00775194,0.00074910,0.00049574,-0.00034071,0
 .00017591,-0.00018496,-0.00038883,0.00001986,0.00000532,0.00006870,0.0
 0009623,-0.00000609,0.00015581,0.00102745,0.00060535,0.00001242,0.0005
 0025,-0.00156518,-0.00091553,0.00001702,0.00002237,-0.00000950,0.00000
 030,0.00001185,0.00000699,0.00000044,-0.00000705,-0.00000087,-0.000003
 93,-0.00000388,-0.00000189,0.00000084,-0.00000026,0.00000332,0.0000163
 9,0.00001229,-0.00000733,0.00000393,0.00000731,0.00000385,-0.00000510,
 -0.00000429,0.00000818,0.00000869,-0.00001240,-0.00000194,0.00000901,-
 0.00000099,0.00000841,0.00000139,0.00000316,-0.00000091,0.,-0.00000346
 ,0.00000311,-0.00000056,0.00000245,0.00000195,-0.00004762,-0.00002849,
 0.00000923,0.00000812,-0.00001280,0.00001005,0.00000180,0.00000202,-0.
 00000282,0.00000672,0.00000654,0.00000381,0.00000013,-0.00000725,0.000
 00195,-0.00002664,-0.00002681,-0.00000406,0.00001036,0.00000485,0.0000
 0111,0.00002256,-0.00000250,0.00001902,0.00000796,0.00000871,-0.000004
 41,-0.00003628,-0.00000532,0.00001239,0.00001318,0.00000688,-0.0000274
 2,0.00001203,0.00000310,0.00000239,0.00001302,0.00001576,0.00000892,-0
 .11898380,-0.03383476,-0.19978302,0.13131362,0.03802580,0.21569955,-0.
 00017153,-0.00001912,0.00002591,-0.00023402,-0.00019177,0.00000785,-0.
 00171681,0.00177517,-0.00069813,-0.01127621,-0.00274032,0.01208958,0.0
 0025017,-0.00233839,0.00083970,-0.00053103,-0.00049794,-0.00101383,0.0
 0000098,-0.00004017,0.00006452,0.00016398,-0.00001937,0.00066556,0.001
 66689,-0.00008694,-0.00036970,0.00010581,0.00071569,0.00012033,0.00013
 953,-0.00020679,-0.00001776,-0.00004267,0.00002701,-0.00003701,0.00001
 784,-0.00002427,0.00000206,-0.00004403,0.00000113,0.00002263,0.0000078
 3,-0.00000366,-0.00000932,-0.00002369,-0.00001494,0.00006210,-0.000003
 71,-0.00002741,-0.00001319,-0.00003186,0.00001422,-0.00003264,0.000007
 77,0.00001324,0.00002164,-0.00010461,0.00005850,-0.00000260,0.00001277
 ,-0.00000132,0.00000388,0.00001083,0.00000286,-0.00001051,-0.00004609,
 -0.00002926,0.00001550,-0.00008142,0.00009248,0.00000439,0.00004824,-0
 .00003088,0.00000752,0.00000209,0.00000920,-0.00001799,-0.00000456,0.0
 0000709,0.00000621,0.00000733,-0.00003419,0.00000542,0.00000862,-0.000
 04329,-0.00002631,0.00002605,-0.00002518,0.00002199,-0.00000859,0.0000
 3038,-0.00002240,-0.00001088,0.00000201,-0.00000779,0.00002083,-0.0000
 3378,0.00004684,-0.00000055,0.00002108,0.00002384,0.00002026,-0.000023
 84,-0.00002816,-0.00002018,-0.00001340,-0.00001042,-0.12196541,0.00371
 292,0.11491203,0.01278550,-0.00009563,-0.01746243,0.13232671,-0.000735
 65,-0.00004162,0.00019256,0.00009574,0.00046787,-0.00120592,-0.0028710
 4,-0.00019537,0.00024320,-0.01680041,0.00039310,0.02434150,0.00075435,
 -0.00235327,0.00083444,-0.00060026,-0.00064723,-0.00100330,0.00000449,
 0.00000933,0.00006830,-0.00016062,0.00023238,0.00032507,0.00197819,0.0
 0057852,-0.00036053,0.00109153,-0.00159141,0.00165216,0.00013566,-0.00
 026817,-0.00011599,-0.00002944,-0.00000909,-0.00002282,-0.00000311,0.0
 0000197,-0.00000088,-0.00002454,0.00000961,0.00001855,0.00000535,-0.00
 000555,-0.00000098,-0.00001176,-0.00000376,0.00005304,0.00000264,-0.00
 000537,0.00000056,-0.00002775,0.00000815,-0.00001983,0.00001417,0.0000
 0074,0.00000026,-0.00010700,0.00004785,0.00001984,0.00001493,0.0000174
 9,0.00000904,0.00001225,0.00000068,-0.00001229,-0.00004352,-0.00002446
 ,0.00001817,-0.00004716,0.00007945,0.00003817,0.00001666,-0.00003511,0
 .00001847,0.00000636,0.00001149,-0.00002396,0.00001127,0.00001736,0.00
 001783,0.00001688,-0.00002167,0.00001061,-0.00000899,-0.00005797,-0.00
 002892,0.00002681,-0.00000318,0.00001841,0.00003335,-0.00000314,0.0000
 2446,0.00000075,0.00000991,-0.00001518,-0.00003164,-0.00001011,0.00004
 170,0.00002876,-0.00000199,-0.00000960,0.00002246,-0.00000132,-0.00002
 097,-0.00000867,-0.00000228,0.00000229,0.00089008,-0.04883382,-0.00053
 023,0.00348630,-0.00073496,-0.00385842,0.00029643,0.05255552,0.0002407
 4,-0.00008066,-0.00004169,-0.00025733,-0.00000541,-0.00017858,0.002809
 81,-0.00032920,0.00081161,0.00097345,0.00243471,0.00127446,-0.00099145
 ,0.00017679,-0.00042809,-0.00002918,0.00028892,-0.00009796,-0.00001586
 ,0.00001216,0.00005017,-0.00006164,-0.00000951,0.00003094,-0.00165283,
 -0.00072348,0.00035532,-0.00087035,0.00167545,-0.00164446,-0.00006150,
 0.00005574,0.00002601,-0.00000687,-0.00001397,0.00000534,-0.00000994,0
 .00001359,-0.00000411,0.00001527,0.00000383,0.00000051,-0.00000556,-0.
 00000478,0.00000690,0.00000509,-0.00000812,-0.00000780,-0.00000091,0.0
 0000457,0.00000427,0.00001301,0.00000032,0.00000423,-0.00000457,0.0000
 0561,-0.00000432,0.00002526,-0.00001301,0.00000444,-0.00000434,0.00000
 018,-0.00000016,-0.00000525,-0.00000377,0.00000372,0.00001482,0.000006
 17,-0.00000308,0.00006722,0.00000398,-0.00001076,-0.00001553,0.0000261
 1,0.00000272,-0.00000820,-0.00000907,0.00001303,-0.00000436,-0.0000073
 7,-0.00000692,-0.00000462,0.00001566,-0.00000270,0.00003968,0.00002513
 ,0.00001713,-0.00002060,0.00000037,-0.00000203,-0.00002292,-0.00001498
 ,-0.00002865,-0.00001178,-0.00001608,0.00001793,0.00003252,0.00003084,
 -0.00002626,-0.00002836,0.00000595,0.00002061,-0.00001746,-0.00000223,
 0.00001036,-0.00000476,-0.00000807,-0.00000139,0.11534300,-0.00313631,
 -0.22683131,0.01425301,-0.00124041,-0.02171146,-0.12779455,0.00160019,
 0.24555170,-0.00001586,-0.00006961,0.00001116,0.00077312,-0.00048524,0
 .00003470,-0.00334258,-0.00270494,0.00048946,0.01161408,-0.01504953,0.
 00124258,0.00041075,-0.00204156,0.00021466,0.00036158,-0.00000151,-0.0
 0002031,-0.00000548,0.00001845,-0.00000040,-0.00004818,0.00005039,0.00
 000668,0.00033165,0.00041444,-0.00003148,0.00061950,-0.00055630,-0.000
 02090,-0.00004793,0.00005966,-0.00000555,0.00000751,-0.00000575,0.0000
 1448,-0.00001165,0.00000866,0.00001263,0.00001462,-0.00000036,-0.00000
 924,0.00000048,0.00000724,-0.00000515,0.00000568,-0.00001170,-0.000013
 07,0.00000037,0.00000717,0.00000253,0.00001610,0.00000278,0.00000724,-
 0.00001394,0.00000733,-0.00001229,0.00003669,-0.00002244,0.00000039,-0
 .00000206,0.00000322,0.00000117,-0.00000216,0.00000352,-0.00000206,0.0
 0001479,0.00001632,-0.00000238,-0.00019620,-0.00014817,0.00002028,0.00
 005508,-0.00006244,0.00000493,0.00000400,0.00000417,-0.00000003,0.0000
 0381,0.00000395,-0.00000133,-0.00001442,-0.00002335,0.00000319,-0.0000
 4275,-0.00000629,-0.00001453,0.00000650,0.00001374,-0.00000078,0.00003
 332,-0.00000632,0.00002243,0.00000813,0.00000488,-0.00000191,-0.000040
 75,-0.00000331,0.00001948,0.00003204,-0.00001112,-0.00002344,0.0000069
 0,0.00001361,-0.00000316,0.00000824,0.00000516,0.00000018,-0.15905249,
 0.13590714,-0.01129215,-0.01267661,0.01452423,-0.00019224,-0.01131219,
 0.01256614,-0.00192216,0.17246031,-0.00018238,0.00026844,-0.00001692,0
 .00144835,-0.00080062,0.00006203,-0.00374590,-0.00320096,0.00063861,0.
 01781254,-0.02297540,0.00184176,0.00278997,0.00147499,-0.00030189,-0.0
 0024758,-0.00022649,0.00001924,-0.00006815,0.00004416,0.00000206,-0.00
 121688,0.00053137,0.00001812,-0.00073193,0.00044013,0.00006551,-0.0003
 1963,-0.00025874,-0.00013201,0.00009565,0.00001951,-0.00000770,-0.0000
 5200,-0.00005647,-0.00001205,-0.00001060,0.00002834,0.00000689,-0.0000
 0790,0.00002564,0.00001425,0.00000563,0.00000216,-0.00001143,-0.000052
 42,-0.00005955,0.00002954,0.00000519,0.00000165,0.00000794,-0.00000696
 ,0.00002508,-0.00002095,-0.00001499,0.00003094,-0.00000945,-0.00001699
 ,0.00000558,-0.00000207,0.00000847,0.00001393,0.00001189,0.00000743,0.
 00001260,-0.00001642,-0.00001442,0.00000398,0.00000046,-0.00043493,-0.
 00007372,0.00001214,0.00015154,-0.00010363,0.00000564,-0.00000991,0.00
 000556,0.00000497,-0.00001076,0.00000417,-0.00000552,-0.00003168,-0.00
 006977,0.00000906,-0.00001631,-0.00002449,-0.00005736,0.00002471,-0.00
 002303,0.00002209,-0.00001143,0.00001745,-0.00001433,-0.00000625,0.000
 00046,0.00000970,-0.00000965,-0.00001313,0.00006406,-0.00000876,0.0000
 2171,0.00000948,0.00002448,-0.00002736,-0.00001885,-0.00000691,-0.0000
 0160,-0.00000875,0.13184579,-0.20705851,0.01323300,-0.00431463,0.00560
 456,0.00044020,-0.00023757,0.00040941,-0.00075986,-0.14243224,0.225981
 65,0.00002430,-0.00002150,0.00006088,-0.00019003,0.00014023,0.00022909
 ,0.00061040,0.00059653,0.00089483,-0.00257837,0.00316856,-0.00121130,-
 0.00034701,-0.00010653,-0.00012476,0.00000824,0.00000940,-0.00014786,0
 .00000969,-0.00000145,0.00003791,0.00015406,-0.00003317,0.00026159,0.0
 0010205,0.00001915,0.00074250,-0.00004843,-0.00012286,-0.00148922,-0.0
 0000974,-0.00000623,-0.00001228,0.00001473,0.00004080,-0.00000455,0.00
 001867,-0.00002151,0.00001455,-0.00001013,-0.00001885,-0.00000510,0.00
 000416,0.00001005,-0.00001133,-0.00000320,-0.00002687,0.00000041,-0.00
 000636,-0.00001368,-0.00001069,0.00001014,0.00001146,-0.00000603,-0.00
 001350,0.00001730,0.00001422,-0.00000024,-0.00000186,-0.00001797,-0.00
 000146,-0.00001062,-0.00000384,-0.00000049,0.00000647,-0.00000242,0.00
 000120,-0.00000077,0.00000302,0.00005361,0.00000052,-0.00012293,-0.000
 01993,0.00001432,-0.00000304,0.00000278,-0.00000008,-0.00000195,-0.000
 00079,-0.00000165,-0.00000032,0.00000415,0.00000872,-0.00000405,-0.000
 00381,0.00001564,0.00001169,-0.00000945,-0.00000002,-0.00000473,-0.000
 00764,-0.00000877,-0.00000301,0.00000006,-0.00000051,0.00000026,0.0000
 1066,-0.00000960,-0.00000165,0.00000697,0.00000379,-0.00000603,0.00000
 297,0.00000416,-0.00000080,0.00000090,0.00000052,0.00000219,-0.0108200
 6,0.01306925,-0.04852030,-0.01704072,0.02072174,-0.00101306,0.01860525
 ,-0.02231899,0.00282032,0.01146640,-0.01513310,0.04763577\\-0.00000025
 ,0.00000132,0.00000179,0.00001128,-0.00000064,0.00000455,-0.00001114,0
 .00000033,-0.00000371,0.00001239,0.00000157,-0.00000158,-0.00000221,-0
 .00000329,0.00000260,0.00000207,0.00000327,-0.00000303,-0.00000117,0.0
 0000001,-0.00000208,0.00000225,0.00000147,0.00000046,0.00000262,-0.000
 00321,0.00000182,0.00000191,-0.00000314,0.00000139,0.00000324,-0.00000
 111,0.00000116,0.00000150,-0.00000049,-0.00000522,0.00000037,0.0000015
 8,-0.00000044,-0.00000086,0.00000258,0.00000120,0.00000135,0.00000161,
 0.00000062,-0.00000303,0.00000023,0.00000165,0.00000157,0.00000190,0.0
 0000014,-0.00000154,0.00000252,-0.00000172,0.00000002,0.00000073,-0.00
 000034,-0.00000144,0.00000762,-0.00000254,-0.00000142,0.00000266,0.000
 00002,-0.00000020,0.00000150,0.00000069,-0.00000244,0.00000217,0.00000
 005,0.00000134,-0.00000389,-0.00000420,-0.00000220,0.00000386,0.000000
 92,-0.00000072,-0.00000365,0.00000165,-0.00000511,0.00000259,0.0000001
 1,-0.00000215,-0.00000141,-0.00000076,-0.00000342,0.00000089,-0.000001
 95,-0.00000079,-0.00000219,0.00000045,-0.00000014,-0.00000151,0.000000
 12,-0.00000134,-0.00000161,0.00000035,0.00000144,-0.00000064,0.0000033
 9,-0.00000256,-0.00000284,-0.00000026,-0.00000207,-0.00000362,0.000000
 74,-0.00000199,-0.00000154,0.00000057,-0.00000248,-0.00000465,-0.00000
 176,0.00000225,0.00000171,0.00000126,0.00000296,-0.00000208,-0.0000004
 1,0.00000212,-0.00000062,0.00000229\\\@
 The archive entry for this job was punched.


 A MAN BEGINS CUTTING HIS WISDOM TEETH THE 1ST
 TIME HE BITES OFF MORE THAN HE CAN CHEW.
 Job cpu time:       0 days  2 hours  1 minutes 36.7 seconds.
 Elapsed time:       0 days  0 hours 15 minutes 14.9 seconds.
 File lengths (MBytes):  RWF=    514 Int=      0 D2E=      0 Chk=     18 Scr=      1
 Normal termination of Gaussian 16 at Thu Sep 23 10:30:24 2021.
