 Entering Gaussian System, Link 0=/home/rong/g16/g16
 Input=/home/rong/g16/092321/HOMebz.gjf
 Output=/home/rong/g16/092321/HOMebz.log
 Initial command:
 /home/rong/g16/l1.exe "/tmp/Gau-80144.inp" -scrdir="/tmp/"
 Default is to use a total of   8 processors:
                                8 via shared-memory
                                1 via Linda
 Entering Link 1 = /home/rong/g16/l1.exe PID=     80146.
  
 Copyright (c) 1988-2019, Gaussian, Inc.  All Rights Reserved.
  
 This is part of the Gaussian(R) 16 program.  It is based on
 the Gaussian(R) 09 system (copyright 2009, Gaussian, Inc.),
 the Gaussian(R) 03 system (copyright 2003, Gaussian, Inc.),
 the Gaussian(R) 98 system (copyright 1998, Gaussian, Inc.),
 the Gaussian(R) 94 system (copyright 1995, Gaussian, Inc.),
 the Gaussian 92(TM) system (copyright 1992, Gaussian, Inc.),
 the Gaussian 90(TM) system (copyright 1990, Gaussian, Inc.),
 the Gaussian 88(TM) system (copyright 1988, Gaussian, Inc.),
 the Gaussian 86(TM) system (copyright 1986, Carnegie Mellon
 University), and the Gaussian 82(TM) system (copyright 1983,
 Carnegie Mellon University). Gaussian is a federally registered
 trademark of Gaussian, Inc.
  
 This software contains proprietary and confidential information,
 including trade secrets, belonging to Gaussian, Inc.
  
 This software is provided under written license and may be
 used, copied, transmitted, or stored only in accord with that
 written license.
  
 The following legend is applicable only to US Government
 contracts under FAR:
  
                    RESTRICTED RIGHTS LEGEND
  
 Use, reproduction and disclosure by the US Government is
 subject to restrictions as set forth in subparagraphs (a)
 and (c) of the Commercial Computer Software - Restricted
 Rights clause in FAR 52.227-19.
  
 Gaussian, Inc.
 340 Quinnipiac St., Bldg. 40, Wallingford CT 06492
  
  
 ---------------------------------------------------------------
 Warning -- This program may not be used in any manner that
 competes with the business of Gaussian, Inc. or will provide
 assistance to any competitor of Gaussian, Inc.  The licensee
 of this program is prohibited from giving any competitor of
 Gaussian, Inc. access to this program.  By using this program,
 the user acknowledges that Gaussian, Inc. is engaged in the
 business of creating and licensing software in the field of
 computational chemistry and represents and warrants to the
 licensee that it is not a competitor of Gaussian, Inc. and that
 it will not use this program in any manner prohibited above.
 ---------------------------------------------------------------
  

 Cite this work as:
 Gaussian 16, Revision C.01,
 M. J. Frisch, G. W. Trucks, H. B. Schlegel, G. E. Scuseria, 
 M. A. Robb, J. R. Cheeseman, G. Scalmani, V. Barone, 
 G. A. Petersson, H. Nakatsuji, X. Li, M. Caricato, A. V. Marenich, 
 J. Bloino, B. G. Janesko, R. Gomperts, B. Mennucci, H. P. Hratchian, 
 J. V. Ortiz, A. F. Izmaylov, J. L. Sonnenberg, D. Williams-Young, 
 F. Ding, F. Lipparini, F. Egidi, J. Goings, B. Peng, A. Petrone, 
 T. Henderson, D. Ranasinghe, V. G. Zakrzewski, J. Gao, N. Rega, 
 G. Zheng, W. Liang, M. Hada, M. Ehara, K. Toyota, R. Fukuda, 
 J. Hasegawa, M. Ishida, T. Nakajima, Y. Honda, O. Kitao, H. Nakai, 
 T. Vreven, K. Throssell, J. A. Montgomery, Jr., J. E. Peralta, 
 F. Ogliaro, M. J. Bearpark, J. J. Heyd, E. N. Brothers, K. N. Kudin, 
 V. N. Staroverov, T. A. Keith, R. Kobayashi, J. Normand, 
 K. Raghavachari, A. P. Rendell, J. C. Burant, S. S. Iyengar, 
 J. Tomasi, M. Cossi, J. M. Millam, M. Klene, C. Adamo, R. Cammi, 
 J. W. Ochterski, R. L. Martin, K. Morokuma, O. Farkas, 
 J. B. Foresman, and D. J. Fox, Gaussian, Inc., Wallingford CT, 2019.
 
 ******************************************
 Gaussian 16:  ES64L-G16RevC.01  3-Jul-2019
                23-Sep-2021 
 ******************************************
 %mem=15GB
 %chk=HOMebz.chk
 %nprocshared=8
 Will use up to    8 processors via shared memory.
 ----------------------------------------------------
 # opt freq b3lyp/6-31g(d) scrf=(smd,solvent=toluene)
 ----------------------------------------------------
 1/18=20,19=15,26=3,38=1/1,3;
 2/9=110,12=2,17=6,18=5,40=1/2;
 3/5=1,6=6,7=1,11=2,25=1,30=1,70=32201,71=1,72=13,74=-5/1,2,3;
 4//1;
 5/5=2,38=5,53=13/2;
 6/7=2,8=2,9=2,10=2,28=1/1;
 7//1,2,3,16;
 1/18=20,19=15,26=3/3(2);
 2/9=110/2;
 99//99;
 2/9=110/2;
 3/5=1,6=6,7=1,11=2,25=1,30=1,70=32205,71=1,72=13,74=-5/1,2,3;
 4/5=5,16=3,69=1/1;
 5/5=2,38=5,53=13/2;
 7//1,2,3,16;
 1/18=20,19=15,26=3/3(-5);
 2/9=110/2;
 6/7=2,8=2,9=2,10=2,19=2,28=1/1;
 99/9=1/99;
 ------
 HOMebz
 ------
 Symbolic Z-matrix:
 Charge =  0 Multiplicity = 1
 C                     1.58553  -1.16207  -0.08868 
 C                     2.98069  -1.16207  -0.08868 
 C                     3.67823   0.04568  -0.08868 
 C                     2.98058   1.25419  -0.08988 
 C                     1.58575   1.25411  -0.09036 
 C                     0.88815   0.0459   -0.08937 
 H                     1.03577  -2.11439  -0.08823 
 H                     3.5302   -2.11459  -0.08737 
 H                     1.03563   2.20639  -0.09131 
 O                     5.10823   0.04578  -0.08786 
 H                     5.42921   0.04467  -0.99261 
 O                    -0.54185   0.04614  -0.0896 
 C                     3.75108   2.58757  -0.08997 
 H                     4.39173   2.62936   0.76603 
 H                     4.34029   2.65897  -0.98027 
 H                     3.05657   3.40083  -0.05572 
 C                    -1.01986   0.04345   1.25814 
 H                    -0.71804   0.94697   1.74543 
 H                    -2.08786  -0.02191   1.25765 
 H                    -0.61135  -0.79673   1.77979 
 

 GradGradGradGradGradGradGradGradGradGradGradGradGradGradGradGradGradGrad
 Berny optimization.
 Initialization pass.
                           ----------------------------
                           !    Initial Parameters    !
                           ! (Angstroms and Degrees)  !
 --------------------------                            --------------------------
 ! Name  Definition              Value          Derivative Info.                !
 --------------------------------------------------------------------------------
 ! R1    R(1,2)                  1.3952         estimate D2E/DX2                !
 ! R2    R(1,6)                  1.3948         estimate D2E/DX2                !
 ! R3    R(1,7)                  1.0996         estimate D2E/DX2                !
 ! R4    R(2,3)                  1.3947         estimate D2E/DX2                !
 ! R5    R(2,8)                  1.0997         estimate D2E/DX2                !
 ! R6    R(3,4)                  1.3954         estimate D2E/DX2                !
 ! R7    R(3,10)                 1.43           estimate D2E/DX2                !
 ! R8    R(4,5)                  1.3948         estimate D2E/DX2                !
 ! R9    R(4,13)                 1.54           estimate D2E/DX2                !
 ! R10   R(5,6)                  1.3951         estimate D2E/DX2                !
 ! R11   R(5,9)                  1.0998         estimate D2E/DX2                !
 ! R12   R(6,12)                 1.43           estimate D2E/DX2                !
 ! R13   R(10,11)                0.96           estimate D2E/DX2                !
 ! R14   R(12,17)                1.43           estimate D2E/DX2                !
 ! R15   R(13,14)                1.07           estimate D2E/DX2                !
 ! R16   R(13,15)                1.07           estimate D2E/DX2                !
 ! R17   R(13,16)                1.07           estimate D2E/DX2                !
 ! R18   R(17,18)                1.07           estimate D2E/DX2                !
 ! R19   R(17,19)                1.07           estimate D2E/DX2                !
 ! R20   R(17,20)                1.07           estimate D2E/DX2                !
 ! A1    A(2,1,6)              119.9985         estimate D2E/DX2                !
 ! A2    A(2,1,7)              119.9972         estimate D2E/DX2                !
 ! A3    A(6,1,7)              120.0043         estimate D2E/DX2                !
 ! A4    A(1,2,3)              120.0086         estimate D2E/DX2                !
 ! A5    A(1,2,8)              119.9808         estimate D2E/DX2                !
 ! A6    A(3,2,8)              120.0106         estimate D2E/DX2                !
 ! A7    A(2,3,4)              119.9942         estimate D2E/DX2                !
 ! A8    A(2,3,10)             120.0128         estimate D2E/DX2                !
 ! A9    A(4,3,10)             119.993          estimate D2E/DX2                !
 ! A10   A(3,4,5)              119.994          estimate D2E/DX2                !
 ! A11   A(3,4,13)             119.9811         estimate D2E/DX2                !
 ! A12   A(5,4,13)             120.0249         estimate D2E/DX2                !
 ! A13   A(4,5,6)              120.0047         estimate D2E/DX2                !
 ! A14   A(4,5,9)              120.0113         estimate D2E/DX2                !
 ! A15   A(6,5,9)              119.984          estimate D2E/DX2                !
 ! A16   A(1,6,5)              120.0            estimate D2E/DX2                !
 ! A17   A(1,6,12)             120.008          estimate D2E/DX2                !
 ! A18   A(5,6,12)             119.992          estimate D2E/DX2                !
 ! A19   A(3,10,11)            109.5            estimate D2E/DX2                !
 ! A20   A(6,12,17)            109.519          estimate D2E/DX2                !
 ! A21   A(4,13,14)            109.4712         estimate D2E/DX2                !
 ! A22   A(4,13,15)            109.4712         estimate D2E/DX2                !
 ! A23   A(4,13,16)            109.4712         estimate D2E/DX2                !
 ! A24   A(14,13,15)           109.4713         estimate D2E/DX2                !
 ! A25   A(14,13,16)           109.4712         estimate D2E/DX2                !
 ! A26   A(15,13,16)           109.4712         estimate D2E/DX2                !
 ! A27   A(12,17,18)           109.4712         estimate D2E/DX2                !
 ! A28   A(12,17,19)           109.4712         estimate D2E/DX2                !
 ! A29   A(12,17,20)           109.4712         estimate D2E/DX2                !
 ! A30   A(18,17,19)           109.4713         estimate D2E/DX2                !
 ! A31   A(18,17,20)           109.4712         estimate D2E/DX2                !
 ! A32   A(19,17,20)           109.4712         estimate D2E/DX2                !
 ! D1    D(6,1,2,3)              0.0323         estimate D2E/DX2                !
 ! D2    D(6,1,2,8)            179.9532         estimate D2E/DX2                !
 ! D3    D(7,1,2,3)           -179.9729         estimate D2E/DX2                !
 ! D4    D(7,1,2,8)             -0.052          estimate D2E/DX2                !
 ! D5    D(2,1,6,5)              0.0149         estimate D2E/DX2                !
 ! D6    D(2,1,6,12)           179.9892         estimate D2E/DX2                !
 ! D7    D(7,1,6,5)           -179.9798         estimate D2E/DX2                !
 ! D8    D(7,1,6,12)            -0.0056         estimate D2E/DX2                !
 ! D9    D(1,2,3,4)             -0.0568         estimate D2E/DX2                !
 ! D10   D(1,2,3,10)           179.9619         estimate D2E/DX2                !
 ! D11   D(8,2,3,4)           -179.9777         estimate D2E/DX2                !
 ! D12   D(8,2,3,10)             0.041          estimate D2E/DX2                !
 ! D13   D(2,3,4,5)              0.0341         estimate D2E/DX2                !
 ! D14   D(2,3,4,13)          -179.9964         estimate D2E/DX2                !
 ! D15   D(10,3,4,5)          -179.9846         estimate D2E/DX2                !
 ! D16   D(10,3,4,13)           -0.0151         estimate D2E/DX2                !
 ! D17   D(2,3,10,11)           89.947          estimate D2E/DX2                !
 ! D18   D(4,3,10,11)          -90.0343         estimate D2E/DX2                !
 ! D19   D(3,4,5,6)              0.0131         estimate D2E/DX2                !
 ! D20   D(3,4,5,9)           -179.9995         estimate D2E/DX2                !
 ! D21   D(13,4,5,6)          -179.9563         estimate D2E/DX2                !
 ! D22   D(13,4,5,9)             0.0311         estimate D2E/DX2                !
 ! D23   D(3,4,13,14)          -57.9984         estimate D2E/DX2                !
 ! D24   D(3,4,13,15)           62.0017         estimate D2E/DX2                !
 ! D25   D(3,4,13,16)         -177.9984         estimate D2E/DX2                !
 ! D26   D(5,4,13,14)          121.9711         estimate D2E/DX2                !
 ! D27   D(5,4,13,15)         -118.0289         estimate D2E/DX2                !
 ! D28   D(5,4,13,16)            1.9711         estimate D2E/DX2                !
 ! D29   D(4,5,6,1)             -0.0376         estimate D2E/DX2                !
 ! D30   D(4,5,6,12)           179.9881         estimate D2E/DX2                !
 ! D31   D(9,5,6,1)            179.975          estimate D2E/DX2                !
 ! D32   D(9,5,6,12)             0.0007         estimate D2E/DX2                !
 ! D33   D(1,6,12,17)           89.8553         estimate D2E/DX2                !
 ! D34   D(5,6,12,17)          -90.1704         estimate D2E/DX2                !
 ! D35   D(6,12,17,18)          63.7248         estimate D2E/DX2                !
 ! D36   D(6,12,17,19)        -176.2752         estimate D2E/DX2                !
 ! D37   D(6,12,17,20)         -56.2752         estimate D2E/DX2                !
 --------------------------------------------------------------------------------
 Trust Radius=3.00D-01 FncErr=1.00D-07 GrdErr=1.00D-06 EigMax=2.50D+02 EigMin=1.00D-04
 Number of steps in this run=     99 maximum allowed number of steps=    120.
 GradGradGradGradGradGradGradGradGradGradGradGradGradGradGradGradGradGrad

                          Input orientation:                          
 ---------------------------------------------------------------------
 Center     Atomic      Atomic             Coordinates (Angstroms)
 Number     Number       Type             X           Y           Z
 ---------------------------------------------------------------------
      1          6           0        1.585531   -1.162073   -0.088684
      2          6           0        2.980691   -1.162073   -0.088684
      3          6           0        3.678229    0.045678   -0.088684
      4          6           0        2.980575    1.254187   -0.089883
      5          6           0        1.585750    1.254109   -0.090362
      6          6           0        0.888149    0.045903   -0.089366
      7          1           0        1.035772   -2.114390   -0.088234
      8          1           0        3.530199   -2.114586   -0.087369
      9          1           0        1.035628    2.206390   -0.091315
     10          8           0        5.108229    0.045782   -0.087859
     11          1           0        5.429205    0.044667   -0.992609
     12          8           0       -0.541851    0.046141   -0.089600
     13          6           0        3.751079    2.587575   -0.089965
     14          1           0        4.391725    2.629361    0.766029
     15          1           0        4.340289    2.658975   -0.980265
     16          1           0        3.056574    3.400833   -0.055718
     17          6           0       -1.019862    0.043450    1.258138
     18          1           0       -0.718044    0.946974    1.745427
     19          1           0       -2.087864   -0.021908    1.257648
     20          1           0       -0.611352   -0.796730    1.779787
 ---------------------------------------------------------------------
                    Distance matrix (angstroms):
                    1          2          3          4          5
     1  C    0.000000
     2  C    1.395160   0.000000
     3  C    2.416205   1.394712   0.000000
     4  C    2.790065   2.416260   1.395427   0.000000
     5  C    2.416183   2.789946   2.416356   1.394825   0.000000
     6  C    1.394829   2.416183   2.790080   2.416236   1.395138
     7  H    1.099610   2.165553   3.412986   3.889675   3.413102
     8  H    2.165414   1.099655   2.165330   3.413316   3.889601
     9  H    3.413055   3.889707   3.413506   2.165528   1.099761
    10  O    3.724019   2.446494   1.430000   2.446867   3.723965
    11  H    4.128817   2.875504   1.970533   2.876394   4.129037
    12  O    2.446535   3.723988   4.220080   3.723823   2.446604
    13  C    4.330065   3.827971   2.542941   1.540000   2.542987
    14  H    4.793770   4.134794   2.813366   2.148263   3.240095
    15  H    4.794165   4.152569   2.839465   2.148263   3.217617
    16  H    4.794285   4.563656   3.412420   2.148263   2.602489
    17  C    3.171008   4.389948   4.887330   4.391645   3.173856
    18  H    3.621947   4.636020   4.848042   4.140353   2.961742
    19  H    4.075098   5.366828   5.921572   5.397531   4.115920
    20  H    2.907052   4.065394   4.754087   4.539148   3.539866
                    6          7          8          9         10
     6  C    0.000000
     7  H    2.165331   0.000000
     8  H    3.412938   2.494427   0.000000
     9  H    2.165516   4.320781   4.989362   0.000000
    10  O    4.220080   4.609908   2.675326   4.610240   0.000000
    11  H    4.630015   4.978120   3.014641   4.978845   0.960000
    12  O    1.430000   2.675218   4.609809   2.674905   5.650080
    13  C    3.828376   5.429675   4.707347   2.742076   2.881418
    14  H    4.436327   5.873275   4.896483   3.489603   2.813785
    15  H    4.420307   5.873718   4.923454   3.451934   2.866164
    16  H    3.994841   5.873873   5.535808   2.347804   3.932771
    17  C    2.335868   3.270264   5.212540   3.274809   6.274171
    18  H    2.599663   3.976195   5.547960   2.834627   6.174021
    19  H    3.267369   3.993368   6.144185   4.067090   7.321115
    20  H    2.540131   2.817578   4.730271   3.902857   6.075486
                   11         12         13         14         15
    11  H    0.000000
    12  O    6.038952   0.000000
    13  C    3.177618   4.988801   0.000000
    14  H    3.293906   5.634296   1.070000   0.000000
    15  H    2.832049   5.608518   1.070000   1.747303   0.000000
    16  H    4.215566   4.919733   1.070000   1.747303   1.747303
    17  C    6.830545   1.430000   5.572418   6.017839   6.370451
    18  H    6.789674   2.051796   5.102283   5.468033   5.995588
    19  H    7.846937   2.051796   6.535956   7.018261   7.315500
    20  H    6.699437   2.051796   5.829262   6.147892   6.639166
                   16         17         18         19         20
    16  H    0.000000
    17  C    5.442019   0.000000
    18  H    4.849050   1.070000   0.000000
    19  H    6.317067   1.070000   1.747303   0.000000
    20  H    5.868756   1.070000   1.747303   1.747303   0.000000
 Stoichiometry    C8H10O2
 Framework group  C1[X(C8H10O2)]
 Deg. of freedom    54
 Full point group                 C1      NOp   1
 Largest Abelian subgroup         C1      NOp   1
 Largest concise Abelian subgroup C1      NOp   1
                         Standard orientation:                         
 ---------------------------------------------------------------------
 Center     Atomic      Atomic             Coordinates (Angstroms)
 Number     Number       Type             X           Y           Z
 ---------------------------------------------------------------------
      1          6           0       -0.734849   -1.395559   -0.205958
      2          6           0        0.621719   -1.639425    0.010201
      3          6           0        1.517893   -0.573751    0.090409
      4          6           0        1.057783    0.736479   -0.046749
      5          6           0       -0.298402    0.980186   -0.263327
      6          6           0       -1.194867   -0.085874   -0.342551
      7          1           0       -1.441307   -2.235868   -0.268719
      8          1           0        0.983956   -2.672029    0.118614
      9          1           0       -0.661332    2.012688   -0.371473
     10          8           0        2.908233   -0.823564    0.312778
     11          1           0        3.354320   -0.926356   -0.531047
     12          8           0       -2.585233    0.164304   -0.564345
     13          6           0        2.047588    1.912935    0.041784
     14          1           0        2.551094    1.885176    0.985507
     15          1           0        2.765430    1.835290   -0.747883
     16          1           0        1.513962    2.835745   -0.050757
     17          6           0       -3.250401    0.313125    0.692756
     18          1           0       -2.866169    1.173372    1.199946
     19          1           0       -4.300581    0.435514    0.528309
     20          1           0       -3.082165   -0.558155    1.290642
 ---------------------------------------------------------------------
 Rotational constants (GHZ):           2.6802618           0.8737034           0.6962029
 Standard basis: 6-31G(d) (6D, 7F)
 There are   170 symmetry adapted cartesian basis functions of A   symmetry.
 There are   170 symmetry adapted basis functions of A   symmetry.
   170 basis functions,   320 primitive gaussians,   170 cartesian basis functions
    37 alpha electrons       37 beta electrons
       nuclear repulsion energy       510.4751637297 Hartrees.
 NAtoms=   20 NActive=   20 NUniq=   20 SFac= 1.00D+00 NAtFMM=   60 NAOKFM=F Big=F
 Integral buffers will be    131072 words long.
 Raffenetti 2 integral format.
 Two-electron integral symmetry is turned on.
 ------------------------------------------------------------------------------
 Polarizable Continuum Model (PCM)
 =================================
 Model                : PCM.
 Atomic radii         : SMD-Coulomb.
 Polarization charges : Total charges.
 Charge compensation  : None.
 Solution method      : On-the-fly selection.
 Cavity type          : VdW (van der Waals Surface) (Alpha=1.000).
 Cavity algorithm     : GePol (No added spheres)
                        Default sphere list used, NSphG=   20.
                        Lebedev-Laikov grids with approx.  5.0 points / Ang**2.
                        Smoothing algorithm: York/Karplus (Gamma=1.0000).
                        Polarization charges: spherical gaussians, with
                                              point-specific exponents (IZeta= 3).
                        Self-potential: point-specific (ISelfS= 7).
                        Self-field    : sphere-specific E.n sum rule (ISelfD= 2).
 1st derivatives      : Analytical E(r).r(x)/FMM algorithm (CHGder, D1EAlg=3).
                        Cavity 1st derivative terms included.
 Solvent              : Toluene, Eps=   2.374100 Eps(inf)=   2.238315
 ------------------------------------------------------------------------------
 Spheres list:
 ISph  on   Nord     Re0    Alpha      Xe            Ye            Ze
    1   C      1    1.8500  1.000     -0.734849     -1.395559     -0.205958
    2   C      2    1.8500  1.000      0.621719     -1.639425      0.010201
    3   C      3    1.8500  1.000      1.517893     -0.573751      0.090409
    4   C      4    1.8500  1.000      1.057783      0.736479     -0.046749
    5   C      5    1.8500  1.000     -0.298402      0.980186     -0.263327
    6   C      6    1.8500  1.000     -1.194867     -0.085874     -0.342551
    7   H      7    1.2000  1.000     -1.441307     -2.235868     -0.268719
    8   H      8    1.2000  1.000      0.983956     -2.672029      0.118614
    9   H      9    1.2000  1.000     -0.661332      2.012688     -0.371473
   10   O     10    2.2940  1.000      2.908233     -0.823564      0.312778
   11   H     11    1.2000  1.000      3.354320     -0.926356     -0.531047
   12   O     12    2.2940  1.000     -2.585233      0.164304     -0.564345
   13   C     13    1.8500  1.000      2.047588      1.912935      0.041784
   14   H     14    1.2000  1.000      2.551094      1.885176      0.985507
   15   H     15    1.2000  1.000      2.765430      1.835290     -0.747883
   16   H     16    1.2000  1.000      1.513962      2.835745     -0.050757
   17   C     17    1.8500  1.000     -3.250401      0.313125      0.692756
   18   H     18    1.2000  1.000     -2.866169      1.173372      1.199946
   19   H     19    1.2000  1.000     -4.300581      0.435514      0.528309
   20   H     20    1.2000  1.000     -3.082165     -0.558155      1.290642
 ------------------------------------------------------------------------------
 ------------------------------------------------------------------------------
 Atomic radii for non-electrostatic terms: SMD-CDS.
 ------------------------------------------------------------------------------
 Nuclear repulsion after PCM non-electrostatic terms =      510.4701658218 Hartrees.
 One-electron integrals computed using PRISM.
 NBasis=   170 RedAO= T EigKep=  3.74D-04  NBF=   170
 NBsUse=   170 1.00D-06 EigRej= -1.00D+00 NBFU=   170
 ExpMin= 1.61D-01 ExpMax= 5.48D+03 ExpMxC= 8.25D+02 IAcc=3 IRadAn=         5 AccDes= 0.00D+00
 Harris functional with IExCor=  402 and IRadAn=       5 diagonalized for initial guess.
 HarFok:  IExCor=  402 AccDes= 0.00D+00 IRadAn=         5 IDoV= 1 UseB2=F ITyADJ=14
 ICtDFT=  3500011 ScaDFX=  1.000000  1.000000  1.000000  1.000000
 FoFCou: FMM=F IPFlag=           0 FMFlag=      100000 FMFlg1=           0
         NFxFlg=           0 DoJE=T BraDBF=F KetDBF=T FulRan=T
         wScrn=  0.000000 ICntrl=       500 IOpCl=  0 I1Cent=   200000004 NGrid=           0
         NMat0=    1 NMatS0=      1 NMatT0=    0 NMatD0=    1 NMtDS0=    0 NMtDT0=    0
 Petite list used in FoFCou.
 Requested convergence on RMS density matrix=1.00D-08 within 128 cycles.
 Requested convergence on MAX density matrix=1.00D-06.
 Requested convergence on             energy=1.00D-06.
 No special actions if energy rises.
 Inv3:  Mode=1 IEnd=     8068800.
 Iteration    1 A*A^-1 deviation from unit magnitude is 4.66D-15 for   1638.
 Iteration    1 A*A^-1 deviation from orthogonality  is 1.39D-15 for    499    209.
 Iteration    1 A^-1*A deviation from unit magnitude is 4.88D-15 for   1638.
 Iteration    1 A^-1*A deviation from orthogonality  is 1.39D-15 for   1640   1639.
 Error on total polarization charges =  0.01720
 SCF Done:  E(RB3LYP) =  -461.295874054     A.U. after   12 cycles
            NFock= 12  Conv=0.60D-08     -V/T= 2.0093
 SMD-CDS (non-electrostatic) energy       (kcal/mol) =      -3.14
 (included in total energy above)

 **********************************************************************

            Population analysis using the SCF Density.

 **********************************************************************

 Orbital symmetries:
       Occupied  (A) (A) (A) (A) (A) (A) (A) (A) (A) (A) (A) (A)
                 (A) (A) (A) (A) (A) (A) (A) (A) (A) (A) (A) (A)
                 (A) (A) (A) (A) (A) (A) (A) (A) (A) (A) (A) (A)
                 (A)
       Virtual   (A) (A) (A) (A) (A) (A) (A) (A) (A) (A) (A) (A)
                 (A) (A) (A) (A) (A) (A) (A) (A) (A) (A) (A) (A)
                 (A) (A) (A) (A) (A) (A) (A) (A) (A) (A) (A) (A)
                 (A) (A) (A) (A) (A) (A) (A) (A) (A) (A) (A) (A)
                 (A) (A) (A) (A) (A) (A) (A) (A) (A) (A) (A) (A)
                 (A) (A) (A) (A) (A) (A) (A) (A) (A) (A) (A) (A)
                 (A) (A) (A) (A) (A) (A) (A) (A) (A) (A) (A) (A)
                 (A) (A) (A) (A) (A) (A) (A) (A) (A) (A) (A) (A)
                 (A) (A) (A) (A) (A) (A) (A) (A) (A) (A) (A) (A)
                 (A) (A) (A) (A) (A) (A) (A) (A) (A) (A) (A) (A)
                 (A) (A) (A) (A) (A) (A) (A) (A) (A) (A) (A) (A)
                 (A)
 The electronic state is 1-A.
 Alpha  occ. eigenvalues --  -19.15631 -19.15287 -10.23734 -10.23663 -10.21545
 Alpha  occ. eigenvalues --  -10.19663 -10.19017 -10.18802 -10.18695 -10.17205
 Alpha  occ. eigenvalues --   -1.02675  -1.02349  -0.84891  -0.76724  -0.73678
 Alpha  occ. eigenvalues --   -0.68700  -0.67620  -0.60378  -0.57799  -0.52763
 Alpha  occ. eigenvalues --   -0.49502  -0.48331  -0.44933  -0.43894  -0.43449
 Alpha  occ. eigenvalues --   -0.42458  -0.41417  -0.40053  -0.39019  -0.37440
 Alpha  occ. eigenvalues --   -0.35198  -0.34390  -0.32749  -0.28819  -0.26215
 Alpha  occ. eigenvalues --   -0.24644  -0.23064
 Alpha virt. eigenvalues --    0.00120   0.00754   0.07693   0.09973   0.11935
 Alpha virt. eigenvalues --    0.13404   0.14871   0.15304   0.16532   0.17247
 Alpha virt. eigenvalues --    0.18202   0.19359   0.19724   0.20866   0.23143
 Alpha virt. eigenvalues --    0.25091   0.25357   0.31962   0.35075   0.35635
 Alpha virt. eigenvalues --    0.39235   0.49558   0.50556   0.50693   0.53000
 Alpha virt. eigenvalues --    0.53755   0.54752   0.55241   0.55877   0.58226
 Alpha virt. eigenvalues --    0.58309   0.60002   0.62185   0.62924   0.65236
 Alpha virt. eigenvalues --    0.66437   0.68539   0.69513   0.70105   0.76310
 Alpha virt. eigenvalues --    0.77949   0.79316   0.80076   0.83873   0.84271
 Alpha virt. eigenvalues --    0.86310   0.87548   0.88441   0.89156   0.89543
 Alpha virt. eigenvalues --    0.92251   0.94386   0.94922   0.97069   0.98361
 Alpha virt. eigenvalues --    1.00796   1.02338   1.06450   1.08111   1.08712
 Alpha virt. eigenvalues --    1.13143   1.13614   1.15369   1.18952   1.22792
 Alpha virt. eigenvalues --    1.24297   1.24795   1.26420   1.36885   1.39060
 Alpha virt. eigenvalues --    1.41276   1.44912   1.45465   1.47986   1.49173
 Alpha virt. eigenvalues --    1.51637   1.54620   1.62690   1.69189   1.75118
 Alpha virt. eigenvalues --    1.78467   1.78925   1.80802   1.83381   1.85102
 Alpha virt. eigenvalues --    1.86794   1.89300   1.91083   1.97244   1.98557
 Alpha virt. eigenvalues --    1.99819   2.00983   2.05422   2.07381   2.10959
 Alpha virt. eigenvalues --    2.16009   2.17592   2.17774   2.19978   2.25912
 Alpha virt. eigenvalues --    2.26805   2.30116   2.31217   2.32359   2.34130
 Alpha virt. eigenvalues --    2.36862   2.42089   2.42737   2.47772   2.52190
 Alpha virt. eigenvalues --    2.57721   2.61107   2.67093   2.67432   2.72328
 Alpha virt. eigenvalues --    2.76347   2.78048   2.84488   2.90544   2.98072
 Alpha virt. eigenvalues --    3.06091   3.15931   3.42664   3.92092   4.03512
 Alpha virt. eigenvalues --    4.10596   4.11633   4.23645   4.27215   4.29059
 Alpha virt. eigenvalues --    4.39879   4.48411   4.80774
          Condensed to atoms (all electrons):
               1          2          3          4          5          6
     1  C    5.070727   0.439352  -0.023884  -0.027057  -0.071854   0.516710
     2  C    0.439352   5.094509   0.502782  -0.066818  -0.046934  -0.005752
     3  C   -0.023884   0.502782   4.681076   0.488172  -0.019492  -0.041943
     4  C   -0.027057  -0.066818   0.488172   4.857592   0.482333  -0.009727
     5  C   -0.071854  -0.046934  -0.019492   0.482333   5.141342   0.487942
     6  C    0.516710  -0.005752  -0.041943  -0.009727   0.487942   4.601668
     7  H    0.349983  -0.037542   0.003693   0.000113   0.006283  -0.037422
     8  H   -0.033542   0.342794  -0.033857   0.005446   0.000510   0.003259
     9  H    0.006417  -0.000274   0.004820  -0.038281   0.348596  -0.041440
    10  O    0.004005  -0.057407   0.269732  -0.072587   0.003479   0.000065
    11  H   -0.000094  -0.002039  -0.022454  -0.000969  -0.000031   0.000004
    12  O   -0.049040   0.004406   0.000245   0.004458  -0.044539   0.222377
    13  C    0.000103   0.008332  -0.059032   0.337630  -0.048435   0.005928
    14  H    0.000004   0.000079  -0.004149  -0.026287   0.000248  -0.000128
    15  H    0.000027  -0.000074  -0.003875  -0.025814   0.000901  -0.000173
    16  H    0.000001  -0.000161   0.004488  -0.030983  -0.002073   0.000203
    17  C   -0.006789  -0.000117   0.000051  -0.000169  -0.005249  -0.039824
    18  H    0.000100   0.000075  -0.000017  -0.000844   0.005828  -0.001023
    19  H   -0.000008   0.000007  -0.000001   0.000010  -0.000014   0.004610
    20  H    0.007079  -0.000872  -0.000010   0.000096   0.000078  -0.002025
               7          8          9         10         11         12
     1  C    0.349983  -0.033542   0.006417   0.004005  -0.000094  -0.049040
     2  C   -0.037542   0.342794  -0.000274  -0.057407  -0.002039   0.004406
     3  C    0.003693  -0.033857   0.004820   0.269732  -0.022454   0.000245
     4  C    0.000113   0.005446  -0.038281  -0.072587  -0.000969   0.004458
     5  C    0.006283   0.000510   0.348596   0.003479  -0.000031  -0.044539
     6  C   -0.037422   0.003259  -0.041440   0.000065   0.000004   0.222377
     7  H    0.573215  -0.005932  -0.000156  -0.000048   0.000002  -0.001790
     8  H   -0.005932   0.570912   0.000016   0.000240   0.000232  -0.000048
     9  H   -0.000156   0.000016   0.579188  -0.000048   0.000004  -0.001645
    10  O   -0.000048   0.000240  -0.000048   8.289939   0.240700   0.000000
    11  H    0.000002   0.000232   0.000004   0.240700   0.365609  -0.000000
    12  O   -0.001790  -0.000048  -0.001645   0.000000  -0.000000   8.270437
    13  C    0.000008  -0.000181  -0.010307   0.000538  -0.000028  -0.000060
    14  H   -0.000000   0.000002   0.000161   0.003057  -0.000510   0.000000
    15  H   -0.000000  -0.000001   0.000185   0.002603   0.001589   0.000000
    16  H    0.000000   0.000002   0.005966   0.000493  -0.000031  -0.000000
    17  C    0.000269  -0.000003   0.000242  -0.000000   0.000000   0.252009
    18  H    0.000176  -0.000000   0.000759  -0.000000  -0.000000  -0.043157
    19  H   -0.000108  -0.000000  -0.000084  -0.000000  -0.000000  -0.028140
    20  H    0.000848   0.000012   0.000214  -0.000000  -0.000000  -0.041785
              13         14         15         16         17         18
     1  C    0.000103   0.000004   0.000027   0.000001  -0.006789   0.000100
     2  C    0.008332   0.000079  -0.000074  -0.000161  -0.000117   0.000075
     3  C   -0.059032  -0.004149  -0.003875   0.004488   0.000051  -0.000017
     4  C    0.337630  -0.026287  -0.025814  -0.030983  -0.000169  -0.000844
     5  C   -0.048435   0.000248   0.000901  -0.002073  -0.005249   0.005828
     6  C    0.005928  -0.000128  -0.000173   0.000203  -0.039824  -0.001023
     7  H    0.000008  -0.000000  -0.000000   0.000000   0.000269   0.000176
     8  H   -0.000181   0.000002  -0.000001   0.000002  -0.000003  -0.000000
     9  H   -0.010307   0.000161   0.000185   0.005966   0.000242   0.000759
    10  O    0.000538   0.003057   0.002603   0.000493  -0.000000  -0.000000
    11  H   -0.000028  -0.000510   0.001589  -0.000031   0.000000  -0.000000
    12  O   -0.000060   0.000000   0.000000  -0.000000   0.252009  -0.043157
    13  C    5.173124   0.373299   0.366778   0.363298  -0.000003   0.000015
    14  H    0.373299   0.530695  -0.029304  -0.027056   0.000000  -0.000001
    15  H    0.366778  -0.029304   0.551717  -0.027883  -0.000000  -0.000000
    16  H    0.363298  -0.027056  -0.027883   0.553406  -0.000001  -0.000001
    17  C   -0.000003   0.000000  -0.000000  -0.000001   4.894861   0.369432
    18  H    0.000015  -0.000001  -0.000000  -0.000001   0.369432   0.599569
    19  H   -0.000000   0.000000   0.000000   0.000000   0.379824  -0.034396
    20  H   -0.000000   0.000000  -0.000000   0.000000   0.367882  -0.046669
              19         20
     1  C   -0.000008   0.007079
     2  C    0.000007  -0.000872
     3  C   -0.000001  -0.000010
     4  C    0.000010   0.000096
     5  C   -0.000014   0.000078
     6  C    0.004610  -0.002025
     7  H   -0.000108   0.000848
     8  H   -0.000000   0.000012
     9  H   -0.000084   0.000214
    10  O   -0.000000  -0.000000
    11  H   -0.000000  -0.000000
    12  O   -0.028140  -0.041785
    13  C   -0.000000  -0.000000
    14  H    0.000000   0.000000
    15  H    0.000000  -0.000000
    16  H    0.000000   0.000000
    17  C    0.379824   0.367882
    18  H   -0.034396  -0.046669
    19  H    0.544321  -0.032486
    20  H   -0.032486   0.596632
 Mulliken charges:
               1
     1  C   -0.182244
     2  C   -0.174347
     3  C    0.253658
     4  C    0.123686
     5  C   -0.238921
     6  C    0.336692
     7  H    0.148407
     8  H    0.150138
     9  H    0.145667
    10  O   -0.684761
    11  H    0.418014
    12  O   -0.543728
    13  C   -0.511009
    14  H    0.179888
    15  H    0.163323
    16  H    0.160331
    17  C   -0.212416
    18  H    0.150153
    19  H    0.166464
    20  H    0.151005
 Sum of Mulliken charges =  -0.00000
 Mulliken charges with hydrogens summed into heavy atoms:
               1
     1  C   -0.033837
     2  C   -0.024209
     3  C    0.253658
     4  C    0.123686
     5  C   -0.093254
     6  C    0.336692
    10  O   -0.266747
    12  O   -0.543728
    13  C   -0.007467
    17  C    0.255206
 Electronic spatial extent (au):  <R**2>=           1647.6561
 Charge=              0.0000 electrons
 Dipole moment (field-independent basis, Debye):
    X=              0.3600    Y=              0.2498    Z=             -0.0499  Tot=              0.4410
 Quadrupole moment (field-independent basis, Debye-Ang):
   XX=            -54.4823   YY=            -53.4785   ZZ=            -60.7157
   XY=              0.3742   XZ=            -10.1784   YZ=              1.8181
 Traceless Quadrupole moment (field-independent basis, Debye-Ang):
   XX=              1.7432   YY=              2.7470   ZZ=             -4.4902
   XY=              0.3742   XZ=            -10.1784   YZ=              1.8181
 Octapole moment (field-independent basis, Debye-Ang**2):
  XXX=             -1.0035  YYY=             -5.5708  ZZZ=              0.8124  XYY=              0.1706
  XXY=             -0.6531  XXZ=             -4.8760  XZZ=              3.7163  YZZ=              0.6288
  YYZ=             -1.5544  XYZ=              4.1343
 Hexadecapole moment (field-independent basis, Debye-Ang**3):
 XXXX=          -1313.6808 YYYY=           -501.2168 ZZZZ=           -117.1775 XXXY=            -30.6220
 XXXZ=           -104.9486 YYYX=            -13.7628 YYYZ=             -0.5391 ZZZX=              0.9557
 ZZZY=              0.6955 XXYY=           -322.1732 XXZZ=           -257.7478 YYZZ=           -112.7809
 XXYZ=             21.5760 YYXZ=             -2.7739 ZZXY=             -2.9041
 N-N= 5.104701658218D+02 E-N=-2.095569353857D+03  KE= 4.570500783756D+02
 D1PCM: PCM CHGder 1st derivatives, ID1Alg=3 FixD1E=F DoIter=F DoCFld=F I1PDM=0.
 Calling FoFJK, ICntrl=      2127 FMM=F ISym2X=0 I1Cent= 0 IOpClX= 0 NMat=1 NMatS=1 NMatT=0.
 ***** Axes restored to original set *****
 -------------------------------------------------------------------
 Center     Atomic                   Forces (Hartrees/Bohr)
 Number     Number              X              Y              Z
 -------------------------------------------------------------------
      1        6          -0.006749201   -0.009892723    0.000785110
      2        6           0.005680492   -0.008077027    0.000187330
      3        6           0.019456047   -0.006475374   -0.007098933
      4        6           0.011599691    0.024095185    0.000748124
      5        6          -0.007541342    0.002326888    0.000888730
      6        6          -0.023034089    0.000139839   -0.002458989
      7        1           0.003345396    0.008311387   -0.000183651
      8        1          -0.003249174    0.008390082   -0.000292418
      9        1           0.003700135   -0.008184480   -0.000188998
     10        8          -0.026535156    0.000002082    0.016266784
     11        1           0.000384744    0.000068059   -0.011384158
     12        8           0.027035027   -0.000960947   -0.001937819
     13        6          -0.019481379   -0.031398479    0.000504746
     14        1           0.012548715    0.002901874    0.011947265
     15        1           0.012074834    0.004344385   -0.013251689
     16        1          -0.008963334    0.013976916    0.000027358
     17        6           0.007902648    0.000223355   -0.015151649
     18        1           0.003640689    0.015699505    0.012390020
     19        1          -0.016854109   -0.000940169   -0.004606134
     20        1           0.005039365   -0.014550360    0.012808971
 -------------------------------------------------------------------
 Cartesian Forces:  Max     0.031398479 RMS     0.011406756

 GradGradGradGradGradGradGradGradGradGradGradGradGradGradGradGradGradGrad
 Berny optimization.
 FormGI is forming the generalized inverse of G from B-inverse, IUseBI=4.
 Internal  Forces:  Max     0.026762382 RMS     0.007197448
 Search for a local minimum.
 Step number   1 out of a maximum of   99
 All quantities printed in internal units (Hartrees-Bohrs-Radians)
 Mixed Optimization -- RFO/linear search
 Second derivative matrix not updated -- first step.
 ITU=  0
     Eigenvalues ---    0.00237   0.01295   0.01295   0.01295   0.01387
     Eigenvalues ---    0.01983   0.02016   0.02152   0.02154   0.02155
     Eigenvalues ---    0.02155   0.02156   0.02157   0.07243   0.07243
     Eigenvalues ---    0.10344   0.10344   0.16000   0.16000   0.16000
     Eigenvalues ---    0.16000   0.16000   0.16000   0.16000   0.16000
     Eigenvalues ---    0.16000   0.16000   0.22375   0.23492   0.24610
     Eigenvalues ---    0.25000   0.25000   0.25000   0.25000   0.28519
     Eigenvalues ---    0.33709   0.33720   0.33725   0.37230   0.37230
     Eigenvalues ---    0.37230   0.37230   0.37230   0.37230   0.40989
     Eigenvalues ---    0.40989   0.40989   0.42245   0.42541   0.46412
     Eigenvalues ---    0.46453   0.46466   0.46497   0.55473
 RFO step:  Lambda=-1.35777770D-02 EMin= 2.36824180D-03
 Linear search not attempted -- first point.
 Iteration  1 RMS(Cart)=  0.05018434 RMS(Int)=  0.00201428
 Iteration  2 RMS(Cart)=  0.00281794 RMS(Int)=  0.00024528
 Iteration  3 RMS(Cart)=  0.00001058 RMS(Int)=  0.00024519
 Iteration  4 RMS(Cart)=  0.00000001 RMS(Int)=  0.00024519
 Variable       Old X    -DE/DX   Delta X   Delta X   Delta X     New X
                                 (Linear)    (Quad)   (Total)
    R1        2.63647  -0.00018   0.00000  -0.00059  -0.00062   2.63585
    R2        2.63584  -0.00165   0.00000  -0.00380  -0.00385   2.63200
    R3        2.07796  -0.00887   0.00000  -0.02528  -0.02528   2.05268
    R4        2.63562  -0.00034   0.00000  -0.00059  -0.00057   2.63505
    R5        2.07805  -0.00889   0.00000  -0.02535  -0.02535   2.05270
    R6        2.63697   0.00447   0.00000   0.00970   0.00975   2.64673
    R7        2.70231  -0.02615   0.00000  -0.06175  -0.06175   2.64056
    R8        2.63584   0.00369   0.00000   0.00794   0.00797   2.64381
    R9        2.91018  -0.01072   0.00000  -0.03589  -0.03589   2.87429
   R10        2.63643   0.00039   0.00000   0.00070   0.00068   2.63711
   R11        2.07825  -0.00894   0.00000  -0.02549  -0.02549   2.05276
   R12        2.70231  -0.02676   0.00000  -0.06320  -0.06320   2.63911
   R13        1.81414   0.01086   0.00000   0.01910   0.01910   1.83324
   R14        2.70231   0.00522   0.00000   0.01232   0.01232   2.71463
   R15        2.02201   0.01718   0.00000   0.04453   0.04453   2.06654
   R16        2.02201   0.01797   0.00000   0.04656   0.04656   2.06857
   R17        2.02201   0.01644   0.00000   0.04261   0.04261   2.06461
   R18        2.02201   0.01993   0.00000   0.05164   0.05164   2.07365
   R19        2.02201   0.01688   0.00000   0.04375   0.04375   2.06576
   R20        2.02201   0.01959   0.00000   0.05077   0.05077   2.07278
    A1        2.09437  -0.00281   0.00000  -0.01312  -0.01314   2.08122
    A2        2.09435   0.00271   0.00000   0.01409   0.01409   2.10844
    A3        2.09447   0.00010   0.00000  -0.00098  -0.00098   2.09349
    A4        2.09455  -0.00023   0.00000  -0.00110  -0.00105   2.09349
    A5        2.09406   0.00155   0.00000   0.00879   0.00876   2.10282
    A6        2.09458  -0.00131   0.00000  -0.00769  -0.00772   2.08686
    A7        2.09429   0.00574   0.00000   0.02271   0.02258   2.11688
    A8        2.09462  -0.00276   0.00000  -0.01093  -0.01125   2.08337
    A9        2.09427  -0.00298   0.00000  -0.01177  -0.01209   2.08219
   A10        2.09429  -0.00837   0.00000  -0.03064  -0.03049   2.06380
   A11        2.09407   0.00217   0.00000   0.00765   0.00758   2.10164
   A12        2.09483   0.00621   0.00000   0.02299   0.02291   2.11774
   A13        2.09448   0.00213   0.00000   0.00945   0.00951   2.10399
   A14        2.09459  -0.00014   0.00000   0.00060   0.00054   2.09514
   A15        2.09411  -0.00199   0.00000  -0.01005  -0.01011   2.08401
   A16        2.09440   0.00355   0.00000   0.01269   0.01258   2.10698
   A17        2.09453  -0.00192   0.00000  -0.00692  -0.00702   2.08751
   A18        2.09426  -0.00162   0.00000  -0.00578  -0.00588   2.08838
   A19        1.91114  -0.00625   0.00000  -0.03599  -0.03599   1.87515
   A20        1.91147   0.01370   0.00000   0.05198   0.05198   1.96345
   A21        1.91063   0.00323   0.00000   0.01806   0.01790   1.92853
   A22        1.91063   0.00439   0.00000   0.02404   0.02387   1.93450
   A23        1.91063   0.00204   0.00000   0.01358   0.01339   1.92402
   A24        1.91063  -0.00458   0.00000  -0.03004  -0.03017   1.88046
   A25        1.91063  -0.00209   0.00000  -0.00953  -0.00970   1.90093
   A26        1.91063  -0.00299   0.00000  -0.01612  -0.01631   1.89432
   A27        1.91063   0.00657   0.00000   0.04007   0.03953   1.95017
   A28        1.91063  -0.00976   0.00000  -0.06073  -0.06046   1.85017
   A29        1.91063   0.00677   0.00000   0.04129   0.04077   1.95140
   A30        1.91063  -0.00046   0.00000  -0.00719  -0.00694   1.90369
   A31        1.91063  -0.00264   0.00000  -0.00626  -0.00741   1.90322
   A32        1.91063  -0.00048   0.00000  -0.00718  -0.00691   1.90372
    D1        0.00056  -0.00002   0.00000  -0.00110  -0.00113  -0.00056
    D2        3.14078  -0.00013   0.00000  -0.00397  -0.00400   3.13678
    D3       -3.14112  -0.00032   0.00000  -0.00951  -0.00955   3.13251
    D4       -0.00091  -0.00043   0.00000  -0.01238  -0.01242  -0.01333
    D5        0.00026  -0.00007   0.00000  -0.00155  -0.00152  -0.00126
    D6        3.14140  -0.00097   0.00000  -0.02808  -0.02807   3.11334
    D7       -3.14124   0.00023   0.00000   0.00686   0.00683  -3.13441
    D8       -0.00010  -0.00066   0.00000  -0.01967  -0.01972  -0.01982
    D9       -0.00099   0.00007   0.00000   0.00289   0.00296   0.00197
   D10        3.14093  -0.00134   0.00000  -0.03916  -0.03924   3.10169
   D11       -3.14120   0.00018   0.00000   0.00575   0.00579  -3.13542
   D12        0.00072  -0.00124   0.00000  -0.03631  -0.03641  -0.03570
   D13        0.00060  -0.00004   0.00000  -0.00205  -0.00210  -0.00150
   D14       -3.14153  -0.00001   0.00000  -0.00086  -0.00091   3.14074
   D15       -3.14132   0.00137   0.00000   0.04000   0.04008  -3.10125
   D16       -0.00026   0.00140   0.00000   0.04119   0.04126   0.04100
   D17        1.56987   0.00078   0.00000   0.02360   0.02325   1.59312
   D18       -1.57140  -0.00064   0.00000  -0.01846  -0.01811  -1.58950
   D19        0.00023  -0.00004   0.00000  -0.00059  -0.00057  -0.00034
   D20       -3.14158   0.00035   0.00000   0.01038   0.01043  -3.13116
   D21       -3.14083  -0.00007   0.00000  -0.00178  -0.00176   3.14060
   D22        0.00054   0.00032   0.00000   0.00919   0.00924   0.00978
   D23       -1.01226   0.00056   0.00000   0.00792   0.00792  -1.00434
   D24        1.08213  -0.00039   0.00000  -0.00309  -0.00313   1.07900
   D25       -3.10666  -0.00010   0.00000   0.00021   0.00020  -3.10646
   D26        2.12880   0.00059   0.00000   0.00909   0.00912   2.13792
   D27       -2.05999  -0.00036   0.00000  -0.00192  -0.00193  -2.06192
   D28        0.03440  -0.00008   0.00000   0.00138   0.00140   0.03580
   D29       -0.00066   0.00010   0.00000   0.00239   0.00238   0.00172
   D30        3.14138   0.00100   0.00000   0.02892   0.02894  -3.11286
   D31        3.14116  -0.00029   0.00000  -0.00857  -0.00855   3.13261
   D32        0.00001   0.00060   0.00000   0.01795   0.01802   0.01803
   D33        1.56827   0.00039   0.00000   0.01119   0.01106   1.57933
   D34       -1.57377  -0.00050   0.00000  -0.01533  -0.01520  -1.58897
   D35        1.11221   0.00214   0.00000   0.00827   0.00936   1.12157
   D36       -3.07658  -0.00037   0.00000  -0.01319  -0.01318  -3.08976
   D37       -0.98219  -0.00280   0.00000  -0.03389  -0.03500  -1.01719
         Item               Value     Threshold  Converged?
 Maximum Force            0.026762     0.000450     NO 
 RMS     Force            0.007197     0.000300     NO 
 Maximum Displacement     0.236733     0.001800     NO 
 RMS     Displacement     0.051639     0.001200     NO 
 Predicted change in Energy=-7.158386D-03
 GradGradGradGradGradGradGradGradGradGradGradGradGradGradGradGradGradGrad

                          Input orientation:                          
 ---------------------------------------------------------------------
 Center     Atomic      Atomic             Coordinates (Angstroms)
 Number     Number       Type             X           Y           Z
 ---------------------------------------------------------------------
      1          6           0        1.597978   -1.171190   -0.071007
      2          6           0        2.992517   -1.162429   -0.098181
      3          6           0        3.680917    0.050140   -0.110700
      4          6           0        2.999458    1.273653   -0.094156
      5          6           0        1.600854    1.252261   -0.066389
      6          6           0        0.910070    0.039774   -0.056015
      7          1           0        1.047504   -2.107605   -0.069443
      8          1           0        3.549373   -2.095047   -0.105748
      9          1           0        1.042667    2.184143   -0.062823
     10          8           0        5.078070    0.045214   -0.089343
     11          1           0        5.382911    0.047303   -1.010309
     12          8           0       -0.486469    0.040072   -0.063101
     13          6           0        3.770440    2.584713   -0.107142
     14          1           0        4.455931    2.634264    0.743464
     15          1           0        4.365690    2.677380   -1.021104
     16          1           0        3.079901    3.429766   -0.055203
     17          6           0       -1.042865    0.031257    1.261262
     18          1           0       -0.791997    0.945688    1.813540
     19          1           0       -2.127079   -0.022124    1.132374
     20          1           0       -0.707214   -0.838974    1.838457
 ---------------------------------------------------------------------
                    Distance matrix (angstroms):
                    1          2          3          4          5
     1  C    0.000000
     2  C    1.394832   0.000000
     3  C    2.414924   1.394408   0.000000
     4  C    2.818145   2.436095   1.400587   0.000000
     5  C    2.423457   2.787196   2.402856   1.399044   0.000000
     6  C    1.392794   2.404923   2.771406   2.426820   1.395498
     7  H    1.086231   2.162698   3.404766   3.904311   3.405129
     8  H    2.159319   1.086242   2.149223   3.413310   3.873338
     9  H    3.400984   3.873333   3.393615   2.158473   1.086273
    10  O    3.686600   2.409981   1.397325   2.414480   3.680832
    11  H    4.085674   2.830090   1.925120   2.832687   4.080056
    12  O    2.410837   3.681112   4.167670   3.697889   2.413780
    13  C    4.339091   3.827051   2.536156   1.521006   2.546408
    14  H    4.828326   4.155096   2.829830   2.161985   3.273722
    15  H    4.834708   4.181091   2.863589   2.167088   3.253730
    16  H    4.833750   4.593227   3.433099   2.157964   2.632343
    17  C    3.192941   4.422362   4.919019   4.440843   3.200431
    18  H    3.707380   4.735122   4.950925   4.256994   3.058407
    19  H    4.079770   5.387469   5.939972   5.428149   4.118079
    20  H    3.011699   4.188461   4.883178   4.683760   3.650874
                    6          7          8          9         10
     6  C    0.000000
     7  H    2.151814   0.000000
     8  H    3.394975   2.502164   0.000000
     9  H    2.148475   4.291755   4.959524   0.000000
    10  O    4.168137   4.569518   2.630191   4.567297   0.000000
    11  H    4.573515   4.931999   2.961378   4.929658   0.970109
    12  O    1.396557   2.639247   4.566024   2.633495   5.564604
    13  C    3.828975   5.425279   4.684980   2.757385   2.856444
    14  H    4.465834   5.896059   4.889723   3.535969   2.789947
    15  H    4.453052   5.900178   4.927506   3.493432   2.881660
    16  H    4.024949   5.898586   5.544955   2.387877   3.930527
    17  C    2.355684   3.273400   5.241997   3.276822   6.268188
    18  H    2.685693   4.031375   5.637129   2.901809   6.236145
    19  H    3.261958   3.983913   6.168635   4.042696   7.308303
    20  H    2.641369   2.885921   4.845223   3.976956   6.161795
                   11         12         13         14         15
    11  H    0.000000
    12  O    5.945324   0.000000
    13  C    3.139143   4.959679   0.000000
    14  H    3.259965   5.639831   1.093564   0.000000
    15  H    2.819957   5.605052   1.094640   1.767400   0.000000
    16  H    4.202039   4.920273   1.092546   1.778806   1.775473
    17  C    6.815489   1.436521   5.617880   6.105777   6.439226
    18  H    6.849138   2.106008   5.214523   5.615790   6.134793
    19  H    7.809984   2.030918   6.566029   7.109407   7.353967
    20  H    6.781635   2.106507   5.962917   6.318263   6.802660
                   16         17         18         19         20
    16  H    0.000000
    17  C    5.502739   0.000000
    18  H    4.965323   1.097329   0.000000
    19  H    6.359129   1.093152   1.784122   0.000000
    20  H    6.012514   1.096867   1.786849   1.783764   0.000000
 Stoichiometry    C8H10O2
 Framework group  C1[X(C8H10O2)]
 Deg. of freedom    54
 Full point group                 C1      NOp   1
 Largest Abelian subgroup         C1      NOp   1
 Largest concise Abelian subgroup C1      NOp   1
                         Standard orientation:                         
 ---------------------------------------------------------------------
 Center     Atomic      Atomic             Coordinates (Angstroms)
 Number     Number       Type             X           Y           Z
 ---------------------------------------------------------------------
      1          6           0       -0.741341   -1.398836   -0.196115
      2          6           0        0.617171   -1.644035    0.003579
      3          6           0        1.513604   -0.578411    0.075882
      4          6           0        1.078856    0.747396   -0.046076
      5          6           0       -0.286053    0.980956   -0.245561
      6          6           0       -1.184450   -0.084268   -0.320370
      7          1           0       -1.450643   -2.218783   -0.263010
      8          1           0        0.984064   -2.661135    0.107598
      9          1           0       -0.653753    1.997365   -0.353727
     10          8           0        2.864542   -0.834992    0.324182
     11          1           0        3.303901   -0.936186   -0.534790
     12          8           0       -2.537878    0.168401   -0.554388
     13          6           0        2.073882    1.894778    0.036978
     14          1           0        2.615707    1.863784    0.986372
     15          1           0        2.810776    1.830347   -0.769912
     16          1           0        1.554042    2.852390   -0.043035
     17          6           0       -3.285255    0.329575    0.661770
     18          1           0       -2.956838    1.211066    1.226788
     19          1           0       -4.326828    0.466643    0.359580
     20          1           0       -3.212233   -0.555695    1.305263
 ---------------------------------------------------------------------
 Rotational constants (GHZ):           2.6921120           0.8779715           0.6978834
 Standard basis: 6-31G(d) (6D, 7F)
 There are   170 symmetry adapted cartesian basis functions of A   symmetry.
 There are   170 symmetry adapted basis functions of A   symmetry.
   170 basis functions,   320 primitive gaussians,   170 cartesian basis functions
    37 alpha electrons       37 beta electrons
       nuclear repulsion energy       511.4739909765 Hartrees.
 NAtoms=   20 NActive=   20 NUniq=   20 SFac= 1.00D+00 NAtFMM=   60 NAOKFM=F Big=F
 Integral buffers will be    131072 words long.
 Raffenetti 2 integral format.
 Two-electron integral symmetry is turned on.
 ------------------------------------------------------------------------------
 Polarizable Continuum Model (PCM)
 =================================
 Model                : PCM.
 Atomic radii         : SMD-Coulomb.
 Polarization charges : Total charges.
 Charge compensation  : None.
 Solution method      : On-the-fly selection.
 Cavity type          : VdW (van der Waals Surface) (Alpha=1.000).
 Cavity algorithm     : GePol (No added spheres)
                        Default sphere list used, NSphG=   20.
                        Lebedev-Laikov grids with approx.  5.0 points / Ang**2.
                        Smoothing algorithm: York/Karplus (Gamma=1.0000).
                        Polarization charges: spherical gaussians, with
                                              point-specific exponents (IZeta= 3).
                        Self-potential: point-specific (ISelfS= 7).
                        Self-field    : sphere-specific E.n sum rule (ISelfD= 2).
 1st derivatives      : Analytical E(r).r(x)/FMM algorithm (CHGder, D1EAlg=3).
                        Cavity 1st derivative terms included.
 Solvent              : Toluene, Eps=   2.374100 Eps(inf)=   2.238315
 ------------------------------------------------------------------------------
 Spheres list:
 ISph  on   Nord     Re0    Alpha      Xe            Ye            Ze
    1   C      1    1.8500  1.000     -0.741341     -1.398836     -0.196115
    2   C      2    1.8500  1.000      0.617171     -1.644035      0.003579
    3   C      3    1.8500  1.000      1.513604     -0.578411      0.075882
    4   C      4    1.8500  1.000      1.078856      0.747396     -0.046076
    5   C      5    1.8500  1.000     -0.286053      0.980956     -0.245561
    6   C      6    1.8500  1.000     -1.184450     -0.084268     -0.320370
    7   H      7    1.2000  1.000     -1.450643     -2.218783     -0.263010
    8   H      8    1.2000  1.000      0.984064     -2.661135      0.107598
    9   H      9    1.2000  1.000     -0.653753      1.997365     -0.353727
   10   O     10    2.2940  1.000      2.864542     -0.834992      0.324182
   11   H     11    1.2000  1.000      3.303901     -0.936186     -0.534790
   12   O     12    2.2940  1.000     -2.537878      0.168401     -0.554388
   13   C     13    1.8500  1.000      2.073882      1.894778      0.036978
   14   H     14    1.2000  1.000      2.615707      1.863784      0.986372
   15   H     15    1.2000  1.000      2.810776      1.830347     -0.769912
   16   H     16    1.2000  1.000      1.554042      2.852390     -0.043035
   17   C     17    1.8500  1.000     -3.285255      0.329575      0.661770
   18   H     18    1.2000  1.000     -2.956838      1.211066      1.226788
   19   H     19    1.2000  1.000     -4.326828      0.466643      0.359580
   20   H     20    1.2000  1.000     -3.212233     -0.555695      1.305263
 ------------------------------------------------------------------------------
 ------------------------------------------------------------------------------
 Atomic radii for non-electrostatic terms: SMD-CDS.
 ------------------------------------------------------------------------------
 Nuclear repulsion after PCM non-electrostatic terms =      511.4687837268 Hartrees.
 One-electron integrals computed using PRISM.
 NBasis=   170 RedAO= T EigKep=  3.74D-04  NBF=   170
 NBsUse=   170 1.00D-06 EigRej= -1.00D+00 NBFU=   170
 Initial guess from the checkpoint file:  "HOMebz.chk"
 B after Tr=     0.000000   -0.000000    0.000000
         Rot=    0.999993    0.000538    0.002261    0.002940 Ang=   0.43 deg.
 ExpMin= 1.61D-01 ExpMax= 5.48D+03 ExpMxC= 8.25D+02 IAcc=3 IRadAn=         5 AccDes= 0.00D+00
 Harris functional with IExCor=  402 and IRadAn=       5 diagonalized for initial guess.
 HarFok:  IExCor=  402 AccDes= 0.00D+00 IRadAn=         5 IDoV= 1 UseB2=F ITyADJ=14
 ICtDFT=  3500011 ScaDFX=  1.000000  1.000000  1.000000  1.000000
 FoFCou: FMM=F IPFlag=           0 FMFlag=      100000 FMFlg1=           0
         NFxFlg=           0 DoJE=T BraDBF=F KetDBF=T FulRan=T
         wScrn=  0.000000 ICntrl=       500 IOpCl=  0 I1Cent=   200000004 NGrid=           0
         NMat0=    1 NMatS0=      1 NMatT0=    0 NMatD0=    1 NMtDS0=    0 NMtDT0=    0
 Petite list used in FoFCou.
 Requested convergence on RMS density matrix=1.00D-08 within 128 cycles.
 Requested convergence on MAX density matrix=1.00D-06.
 Requested convergence on             energy=1.00D-06.
 No special actions if energy rises.
 Inv3:  Mode=1 IEnd=     7970700.
 Iteration    1 A*A^-1 deviation from unit magnitude is 4.00D-15 for   1620.
 Iteration    1 A*A^-1 deviation from orthogonality  is 1.70D-15 for    947    466.
 Iteration    1 A^-1*A deviation from unit magnitude is 3.55D-15 for   1620.
 Iteration    1 A^-1*A deviation from orthogonality  is 1.78D-15 for   1621   1619.
 Error on total polarization charges =  0.01771
 SCF Done:  E(RB3LYP) =  -461.303282118     A.U. after   11 cycles
            NFock= 11  Conv=0.57D-08     -V/T= 2.0094
 SMD-CDS (non-electrostatic) energy       (kcal/mol) =      -3.27
 (included in total energy above)
 D1PCM: PCM CHGder 1st derivatives, ID1Alg=3 FixD1E=F DoIter=F DoCFld=F I1PDM=0.
 Calling FoFJK, ICntrl=      2127 FMM=F ISym2X=0 I1Cent= 0 IOpClX= 0 NMat=1 NMatS=1 NMatT=0.
 ***** Axes restored to original set *****
 -------------------------------------------------------------------
 Center     Atomic                   Forces (Hartrees/Bohr)
 Number     Number              X              Y              Z
 -------------------------------------------------------------------
      1        6           0.001308667   -0.001755042   -0.000055323
      2        6          -0.001334215   -0.000007347    0.000283897
      3        6           0.006008098   -0.002671181    0.000597711
      4        6           0.001502464    0.008604329    0.000171368
      5        6           0.001456806   -0.001160435   -0.000091237
      6        6          -0.011243692    0.000879574   -0.001109227
      7        1          -0.000496731    0.000490579    0.000006142
      8        1           0.000946659    0.000619608   -0.000104522
      9        1          -0.000715653   -0.000133541    0.000062126
     10        8          -0.005259973   -0.000320278   -0.000241743
     11        1           0.002487997    0.000191490   -0.000901618
     12        8           0.008720750   -0.000045022    0.006889694
     13        6          -0.006027417   -0.009117881    0.000512795
     14        1           0.001624346    0.001234186    0.000103415
     15        1           0.001629445    0.001498849   -0.000540750
     16        1           0.000463146    0.001545666   -0.000183649
     17        6          -0.002410629    0.000149365   -0.006003784
     18        1           0.000953652    0.000562088    0.000070310
     19        1          -0.000527628    0.000138875    0.000556222
     20        1           0.000913907   -0.000703883   -0.000021827
 -------------------------------------------------------------------
 Cartesian Forces:  Max     0.011243692 RMS     0.003151589

 GradGradGradGradGradGradGradGradGradGradGradGradGradGradGradGradGradGrad
 Berny optimization.
 Using GEDIIS/GDIIS optimizer.
 FormGI is forming the generalized inverse of G from B-inverse, IUseBI=4.
 Internal  Forces:  Max     0.007656566 RMS     0.001563342
 Search for a local minimum.
 Step number   2 out of a maximum of   99
 All quantities printed in internal units (Hartrees-Bohrs-Radians)
 Mixed Optimization -- RFO/linear search
 Update second derivatives using D2CorX and points    1    2
 DE= -7.41D-03 DEPred=-7.16D-03 R= 1.03D+00
 TightC=F SS=  1.41D+00  RLast= 2.31D-01 DXNew= 5.0454D-01 6.9369D-01
 Trust test= 1.03D+00 RLast= 2.31D-01 DXMaxT set to 5.05D-01
 ITU=  1  0
 Use linear search instead of GDIIS.
     Eigenvalues ---    0.00237   0.01294   0.01295   0.01295   0.01365
     Eigenvalues ---    0.01991   0.02037   0.02153   0.02155   0.02155
     Eigenvalues ---    0.02156   0.02157   0.02164   0.07018   0.07034
     Eigenvalues ---    0.10115   0.10571   0.15268   0.15999   0.15999
     Eigenvalues ---    0.16000   0.16000   0.16000   0.16000   0.16000
     Eigenvalues ---    0.16000   0.17027   0.22177   0.23151   0.23986
     Eigenvalues ---    0.24932   0.24980   0.25000   0.25060   0.27746
     Eigenvalues ---    0.33708   0.33722   0.33924   0.36022   0.37230
     Eigenvalues ---    0.37230   0.37230   0.37230   0.37292   0.39595
     Eigenvalues ---    0.40989   0.42239   0.42501   0.42786   0.46443
     Eigenvalues ---    0.46462   0.46477   0.46794   0.55358
 RFO step:  Lambda=-8.44252299D-04 EMin= 2.36831383D-03
 Quartic linear search produced a step of  0.11038.
 Iteration  1 RMS(Cart)=  0.01991485 RMS(Int)=  0.00023880
 Iteration  2 RMS(Cart)=  0.00033785 RMS(Int)=  0.00004500
 Iteration  3 RMS(Cart)=  0.00000006 RMS(Int)=  0.00004500
 Variable       Old X    -DE/DX   Delta X   Delta X   Delta X     New X
                                 (Linear)    (Quad)   (Total)
    R1        2.63585   0.00107  -0.00007   0.00254   0.00247   2.63832
    R2        2.63200   0.00174  -0.00042   0.00425   0.00382   2.63582
    R3        2.05268  -0.00017  -0.00279   0.00074  -0.00205   2.05063
    R4        2.63505   0.00048  -0.00006   0.00122   0.00115   2.63620
    R5        2.05270  -0.00005  -0.00280   0.00115  -0.00165   2.05105
    R6        2.64673   0.00308   0.00108   0.00694   0.00802   2.65475
    R7        2.64056  -0.00279  -0.00682  -0.00439  -0.01121   2.62936
    R8        2.64381   0.00100   0.00088   0.00201   0.00290   2.64671
    R9        2.87429  -0.00534  -0.00396  -0.01887  -0.02283   2.85146
   R10        2.63711   0.00080   0.00008   0.00183   0.00191   2.63901
   R11        2.05276   0.00025  -0.00281   0.00214  -0.00067   2.05209
   R12        2.63911  -0.00766  -0.00698  -0.01747  -0.02445   2.61466
   R13        1.83324   0.00164   0.00211   0.00231   0.00442   1.83766
   R14        2.71463  -0.00456   0.00136  -0.01296  -0.01160   2.70303
   R15        2.06654   0.00115   0.00492   0.00115   0.00607   2.07261
   R16        2.06857   0.00147   0.00514   0.00198   0.00712   2.07569
   R17        2.06461   0.00089   0.00470   0.00048   0.00518   2.06979
   R18        2.07365   0.00072   0.00570  -0.00049   0.00521   2.07886
   R19        2.06576   0.00045   0.00483  -0.00090   0.00393   2.06969
   R20        2.07278   0.00083   0.00560  -0.00014   0.00546   2.07824
    A1        2.08122   0.00011  -0.00145   0.00075  -0.00070   2.08053
    A2        2.10844   0.00064   0.00156   0.00400   0.00555   2.11399
    A3        2.09349  -0.00075  -0.00011  -0.00477  -0.00488   2.08861
    A4        2.09349   0.00099  -0.00012   0.00485   0.00474   2.09823
    A5        2.10282   0.00066   0.00097   0.00514   0.00610   2.10892
    A6        2.08686  -0.00166  -0.00085  -0.00998  -0.01084   2.07603
    A7        2.11688  -0.00078   0.00249  -0.00470  -0.00223   2.11465
    A8        2.08337   0.00025  -0.00124   0.00158   0.00028   2.08365
    A9        2.08219   0.00053  -0.00133   0.00286   0.00147   2.08366
   A10        2.06380  -0.00071  -0.00337  -0.00154  -0.00488   2.05892
   A11        2.10164  -0.00027   0.00084  -0.00161  -0.00079   2.10085
   A12        2.11774   0.00098   0.00253   0.00314   0.00566   2.12340
   A13        2.10399   0.00149   0.00105   0.00670   0.00777   2.11176
   A14        2.09514  -0.00005   0.00006   0.00118   0.00123   2.09636
   A15        2.08401  -0.00145  -0.00112  -0.00790  -0.00904   2.07497
   A16        2.10698  -0.00110   0.00139  -0.00608  -0.00472   2.10226
   A17        2.08751   0.00112  -0.00077   0.00544   0.00462   2.09213
   A18        2.08838  -0.00002  -0.00065   0.00035  -0.00035   2.08803
   A19        1.87515   0.00381  -0.00397   0.02824   0.02427   1.89941
   A20        1.96345   0.00512   0.00574   0.01995   0.02569   1.98913
   A21        1.92853   0.00158   0.00198   0.00980   0.01169   1.94022
   A22        1.93450   0.00171   0.00263   0.00961   0.01217   1.94667
   A23        1.92402   0.00132   0.00148   0.00946   0.01084   1.93486
   A24        1.88046  -0.00201  -0.00333  -0.01430  -0.01768   1.86278
   A25        1.90093  -0.00125  -0.00107  -0.00630  -0.00747   1.89345
   A26        1.89432  -0.00153  -0.00180  -0.00938  -0.01127   1.88305
   A27        1.95017  -0.00107   0.00436  -0.01068  -0.00641   1.94376
   A28        1.85017   0.00160  -0.00667   0.01652   0.00988   1.86005
   A29        1.95140  -0.00125   0.00450  -0.01203  -0.00761   1.94379
   A30        1.90369   0.00028  -0.00077   0.00450   0.00376   1.90745
   A31        1.90322   0.00016  -0.00082  -0.00215  -0.00316   1.90007
   A32        1.90372   0.00036  -0.00076   0.00503   0.00430   1.90802
    D1       -0.00056  -0.00005  -0.00012  -0.00252  -0.00265  -0.00322
    D2        3.13678   0.00001  -0.00044   0.00099   0.00056   3.13734
    D3        3.13251  -0.00011  -0.00105  -0.00477  -0.00585   3.12667
    D4       -0.01333  -0.00005  -0.00137  -0.00126  -0.00263  -0.01596
    D5       -0.00126   0.00000  -0.00017   0.00059   0.00042  -0.00083
    D6        3.11334  -0.00027  -0.00310  -0.01155  -0.01466   3.09868
    D7       -3.13441   0.00006   0.00075   0.00277   0.00352  -3.13089
    D8       -0.01982  -0.00022  -0.00218  -0.00937  -0.01156  -0.03138
    D9        0.00197   0.00007   0.00033   0.00379   0.00413   0.00609
   D10        3.10169  -0.00013  -0.00433  -0.00326  -0.00759   3.09409
   D11       -3.13542   0.00000   0.00064   0.00028   0.00093  -3.13449
   D12       -0.03570  -0.00019  -0.00402  -0.00677  -0.01079  -0.04649
   D13       -0.00150  -0.00004  -0.00023  -0.00300  -0.00322  -0.00472
   D14        3.14074   0.00001  -0.00010   0.00131   0.00120  -3.14124
   D15       -3.10125   0.00016   0.00442   0.00407   0.00852  -3.09273
   D16        0.04100   0.00022   0.00455   0.00839   0.01294   0.05394
   D17        1.59312   0.00028   0.00257   0.01699   0.01952   1.61264
   D18       -1.58950   0.00006  -0.00200   0.00989   0.00793  -1.58158
   D19       -0.00034  -0.00000  -0.00006   0.00103   0.00097   0.00063
   D20       -3.13116   0.00007   0.00115   0.00335   0.00450  -3.12666
   D21        3.14060  -0.00006  -0.00019  -0.00333  -0.00352   3.13708
   D22        0.00978   0.00001   0.00102  -0.00101   0.00001   0.00979
   D23       -1.00434   0.00023   0.00087   0.00614   0.00703  -0.99731
   D24        1.07900  -0.00016  -0.00035   0.00081   0.00045   1.07945
   D25       -3.10646  -0.00010   0.00002   0.00150   0.00151  -3.10495
   D26        2.13792   0.00028   0.00101   0.01059   0.01163   2.14954
   D27       -2.06192  -0.00010  -0.00021   0.00527   0.00504  -2.05688
   D28        0.03580  -0.00004   0.00015   0.00596   0.00611   0.04191
   D29        0.00172   0.00002   0.00026   0.00015   0.00041   0.00213
   D30       -3.11286   0.00028   0.00319   0.01221   0.01538  -3.09748
   D31        3.13261  -0.00004  -0.00094  -0.00210  -0.00303   3.12959
   D32        0.01803   0.00022   0.00199   0.00997   0.01195   0.02998
   D33        1.57933   0.00014   0.00122   0.00589   0.00712   1.58645
   D34       -1.58897  -0.00015  -0.00168  -0.00622  -0.00790  -1.59687
   D35        1.12157  -0.00099   0.00103  -0.02841  -0.02721   1.09436
   D36       -3.08976  -0.00025  -0.00145  -0.01870  -0.02015  -3.10991
   D37       -1.01719   0.00049  -0.00386  -0.00907  -0.01310  -1.03029
         Item               Value     Threshold  Converged?
 Maximum Force            0.007657     0.000450     NO 
 RMS     Force            0.001563     0.000300     NO 
 Maximum Displacement     0.087350     0.001800     NO 
 RMS     Displacement     0.019854     0.001200     NO 
 Predicted change in Energy=-4.932212D-04
 GradGradGradGradGradGradGradGradGradGradGradGradGradGradGradGradGradGrad

                          Input orientation:                          
 ---------------------------------------------------------------------
 Center     Atomic      Atomic             Coordinates (Angstroms)
 Number     Number       Type             X           Y           Z
 ---------------------------------------------------------------------
      1          6           0        1.602475   -1.174736   -0.058410
      2          6           0        2.997979   -1.161597   -0.098430
      3          6           0        3.688460    0.050392   -0.118311
      4          6           0        3.004486    1.277181   -0.091451
      5          6           0        1.604829    1.248075   -0.049831
      6          6           0        0.910853    0.036300   -0.034735
      7          1           0        1.050194   -2.108824   -0.056382
      8          1           0        3.562808   -2.088295   -0.113607
      9          1           0        1.040598    2.175868   -0.042151
     10          8           0        5.079727    0.043876   -0.100620
     11          1           0        5.405322    0.059220   -1.016811
     12          8           0       -0.472713    0.040043   -0.046498
     13          6           0        3.769329    2.577703   -0.114051
     14          1           0        4.477475    2.635247    0.721494
     15          1           0        4.358066    2.683280   -1.035323
     16          1           0        3.087310    3.432396   -0.050771
     17          6           0       -1.064911    0.030140    1.255502
     18          1           0       -0.800797    0.934858    1.822881
     19          1           0       -2.149396    0.001064    1.105222
     20          1           0       -0.753437   -0.853930    1.830717
 ---------------------------------------------------------------------
                    Distance matrix (angstroms):
                    1          2          3          4          5
     1  C    0.000000
     2  C    1.396139   0.000000
     3  C    2.419889   1.395019   0.000000
     4  C    2.824645   2.438796   1.404832   0.000000
     5  C    2.422827   2.783837   2.404299   1.400578   0.000000
     6  C    1.394816   2.407303   2.778900   2.434400   1.396506
     7  H    1.085144   2.166304   3.409765   3.909669   3.402416
     8  H    2.163456   1.085372   2.142381   3.411546   3.868994
     9  H    3.397428   3.869520   3.396266   2.160307   1.085917
    10  O    3.684845   2.405587   1.391395   2.414074   3.677988
    11  H    4.111304   2.851160   1.937780   2.846705   4.097825
    12  O    2.404628   3.673192   4.161806   3.690995   2.403234
    13  C    4.333492   3.818061   2.528608   1.508925   2.541082
    14  H    4.836305   4.156587   2.830069   2.162157   3.281964
    15  H    4.840653   4.184577   2.867294   2.167992   3.257502
    16  H    4.840502   4.595109   3.435679   2.157190   2.639888
    17  C    3.208277   4.445272   4.947960   4.464234   3.211662
    18  H    3.710169   4.745235   4.970305   4.273409   3.064668
    19  H    4.100376   5.412581   5.964900   5.442701   4.121091
    20  H    3.036781   4.229585   4.934264   4.728461   3.676453
                    6          7          8          9         10
     6  C    0.000000
     7  H    2.149754   0.000000
     8  H    3.398969   2.513349   0.000000
     9  H    2.143511   4.284726   4.954769   0.000000
    10  O    4.169402   4.568721   2.616748   4.567644   0.000000
    11  H    4.600571   4.958828   2.970262   4.947825   0.972447
    12  O    1.383621   2.633814   4.562867   2.617609   5.552705
    13  C    3.825691   5.418538   4.670567   2.759097   2.852648
    14  H    4.477411   5.904029   4.883223   3.550537   2.784561
    15  H    4.459928   5.904625   4.924421   3.499922   2.891525
    16  H    4.033695   5.903812   5.541487   2.401659   3.931193
    17  C    2.359744   3.281749   5.270485   3.274328   6.292522
    18  H    2.681023   4.027629   5.650706   2.899860   6.250941
    19  H    3.265864   4.004788   6.203244   4.027691   7.329128
    20  H    2.653729   2.896375   4.892241   3.988217   6.209825
                   11         12         13         14         15
    11  H    0.000000
    12  O    5.957614   0.000000
    13  C    3.135953   4.943602   0.000000
    14  H    3.243226   5.641742   1.096776   0.000000
    15  H    2.825381   5.594721   1.098407   1.761525   0.000000
    16  H    4.205321   4.917503   1.095288   1.778876   1.773510
    17  C    6.857708   1.430384   5.633439   6.147341   6.457222
    18  H    6.880879   2.098311   5.228451   5.653719   6.151437
    19  H    7.847303   2.034513   6.569399   7.141540   7.356852
    20  H    6.846354   2.098078   6.001137   6.384918   6.844962
                   16         17         18         19         20
    16  H    0.000000
    17  C    5.524730   0.000000
    18  H    4.986546   1.100086   0.000000
    19  H    6.366588   1.095234   1.790454   0.000000
    20  H    6.055074   1.099758   1.789432   1.790548   0.000000
 Stoichiometry    C8H10O2
 Framework group  C1[X(C8H10O2)]
 Deg. of freedom    54
 Full point group                 C1      NOp   1
 Largest Abelian subgroup         C1      NOp   1
 Largest concise Abelian subgroup C1      NOp   1
                         Standard orientation:                         
 ---------------------------------------------------------------------
 Center     Atomic      Atomic             Coordinates (Angstroms)
 Number     Number       Type             X           Y           Z
 ---------------------------------------------------------------------
      1          6           0       -0.738219   -1.402169   -0.188212
      2          6           0        0.623768   -1.642122    0.003148
      3          6           0        1.521643   -0.576645    0.071391
      4          6           0        1.082065    0.752796   -0.042225
      5          6           0       -0.287170    0.977894   -0.232348
      6          6           0       -1.187635   -0.086993   -0.305891
      7          1           0       -1.447619   -2.220414   -0.257247
      8          1           0        1.001711   -2.654752    0.101991
      9          1           0       -0.663140    1.991103   -0.338507
     10          8           0        2.866708   -0.832145    0.319381
     11          1           0        3.330730   -0.923201   -0.530352
     12          8           0       -2.526688    0.164707   -0.546700
     13          6           0        2.068927    1.891739    0.033714
     14          1           0        2.633648    1.864436    0.973535
     15          1           0        2.805685    1.841770   -0.779422
     16          1           0        1.556332    2.857195   -0.035534
     17          6           0       -3.309469    0.329069    0.639150
     18          1           0       -2.975350    1.199842    1.222511
     19          1           0       -4.342617    0.487585    0.312018
     20          1           0       -3.263006   -0.565471    1.277199
 ---------------------------------------------------------------------
 Rotational constants (GHZ):           2.7080746           0.8757929           0.6958214
 Standard basis: 6-31G(d) (6D, 7F)
 There are   170 symmetry adapted cartesian basis functions of A   symmetry.
 There are   170 symmetry adapted basis functions of A   symmetry.
   170 basis functions,   320 primitive gaussians,   170 cartesian basis functions
    37 alpha electrons       37 beta electrons
[...]
 05,0.10789840,-0.00040288,0.01091318,-0.01642831,0.00111117,-0.0019288
 1,-0.00239770,0.00196507,-0.00089075,-0.00048403,0.00015874,-0.0042606
 4,-0.00135503,0.00249937,0.00122480,-0.00041450,-0.00104912,0.10893219
 ,-0.00037416,0.00148651,0.00005222,0.10637443,-0.29213735,0.01645187,0
 .01450643,-0.01913688,0.00046994,-0.00380695,-0.00218926,0.00198584,-0
 .00098099,0.00038937,0.00007687,-0.00024347,0.00214281,0.00070609,0.00
 008021,0.00075480,-0.00073179,-0.11711364,0.30777460,0.00214565,-0.006
 11474,0.00176821,-0.00017355,0.01612583,-0.03512346,-0.00356202,0.0070
 8456,0.00419183,0.00217807,0.00168440,0.00484734,0.00023353,-0.0000295
 0,-0.00053591,0.00233155,0.00094415,0.00583022,-0.00112383,-0.00062591
 ,-0.00364003,-0.00051198,-0.01787003,0.02658794,-0.00173719,-0.0025363
 0,0.00171250,-0.00095488,-0.00037551,0.00012900,-0.00419250,-0.0014023
 4,0.00252288,-0.00935511,0.02761352,-0.00165911,-0.10685270,0.10752695
 ,-0.00045437,0.01072766,-0.01628703,0.00110043,0.00044697,-0.00095058,
 0.00009001,0.00006913,0.00008229,-0.00011966,0.10998645,-0.00407344,-0
 .00262721,0.00194486,-0.00077590,0.00056856,-0.00001324,-0.00021662,0.
 00181703,0.00077126,0.00010121,-0.00066027,0.00044093,0.10666514,-0.28
 900390,0.01587718,0.01441011,-0.01915701,0.00047291,0.00069750,-0.0009
 8004,0.00002861,0.00007486,-0.00005775,-0.00007263,-0.11673595,0.30602
 594,0.00194481,0.00161632,0.00381972,0.00018960,-0.00009883,-0.0006424
 6,0.00234346,0.00102462,0.00595855,0.00249878,-0.00544180,0.00268874,-
 0.00032450,0.01569315,-0.03529407,-0.00353817,0.00703638,0.00405821,-0
 .00015907,0.00038100,0.00017261,-0.00011854,-0.00007420,-0.00039583,-0
 .00078195,-0.01767929,0.02667356,0.00161091,0.00084440,0.00050914,-0.0
 4252762,-0.00500339,0.01106319,-0.28916711,0.06358810,0.04442881,-0.03
 346618,0.01108965,0.00675907,-0.00036819,-0.00016267,0.00150602,0.0058
 7165,-0.00127195,-0.00130148,-0.00111867,-0.00013487,0.00034908,0.0015
 9651,0.00078070,-0.00118169,-0.00126495,0.00017952,0.00030992,0.486491
 48,0.00386204,-0.00880313,0.00119920,-0.04284042,0.01182648,0.00823097
 ,0.01214879,-0.11313408,0.00896524,0.04315518,-0.00480674,-0.00759947,
 -0.00483943,-0.00766057,0.00318318,0.00002021,0.00543128,-0.00099376,-
 0.00151502,0.00023242,0.00035229,0.00061248,0.00178772,-0.00091156,0.0
 0177354,-0.00002597,-0.00032817,0.12147790,0.50253577,0.00005261,0.001
 84283,0.00430617,0.01677830,0.00014297,0.00206531,0.05218188,-0.002034
 07,-0.04734986,0.00191254,-0.00073997,0.00568111,0.00221354,0.00218469
 ,0.00575458,-0.00149770,-0.00071852,-0.00068704,0.00055729,0.00005704,
 0.00029091,-0.00115640,-0.00094756,-0.00298901,0.00006893,0.00001256,0
 .00029462,-0.11764927,-0.09844258,0.06176050,0.00063844,-0.00214377,0.
 00058223,-0.00674942,0.00388307,0.00112204,-0.02819132,-0.04242127,0.0
 1162306,0.00164119,-0.00142900,-0.00003243,-0.00067323,-0.00094589,0.0
 0018945,-0.00031629,0.00069815,-0.00002610,-0.00041904,0.00015618,0.00
 006719,0.00008117,0.00000488,-0.00017611,0.00034794,-0.00003029,-0.000
 07346,-0.12247535,-0.13738821,0.04674955,0.15396106,-0.00005678,0.0000
 5402,0.00028219,0.00236078,0.00117497,-0.00049442,0.00393433,0.0059784
 6,-0.00230495,0.00464779,0.00042694,-0.00098513,0.00015561,-0.00042736
 ,-0.00003776,-0.00052415,-0.00002553,0.00012435,0.00007974,0.00005940,
 -0.00002531,0.00016219,0.00030695,-0.00019252,0.00021823,0.00005966,-0
 .00005830,-0.19013794,-0.38773375,0.09898418,0.17771505,0.38218128,0.0
 0026722,0.00072947,0.00167584,0.00135440,-0.00082017,0.00108153,0.0046
 4019,0.00760448,-0.00588060,-0.00094989,0.00031309,0.00063621,0.000022
 23,0.00019665,-0.00049270,0.00015889,-0.00013668,0.00004229,0.00007884
 ,-0.00004162,-0.00000560,-0.00019965,-0.00015893,-0.00067095,-0.000110
 90,-0.00000514,0.00000723,0.05469521,0.08770723,-0.02554753,-0.0591412
 4,-0.09519809,0.02958639,-0.02847778,0.01322400,0.00548756,-0.00202256
 ,-0.00183618,0.00207537,0.00655522,0.00148534,-0.00187394,0.00279345,0
 .00013265,0.00023275,-0.05029891,-0.00588548,0.01284664,-0.27002715,0.
 06411611,0.03961646,0.00021739,-0.00079509,-0.00055934,-0.00124972,0.0
 0024763,0.00032167,0.00156098,0.00110442,-0.00117666,-0.01274379,0.000
 98396,0.00254672,0.00092246,0.00097808,-0.00037421,0.50862560,0.041118
 65,-0.00275133,-0.00738833,-0.00487450,-0.00697604,0.00306166,0.000286
 17,0.00409314,-0.00085406,0.00224162,-0.00807100,0.00134003,-0.0396510
 0,0.01334963,0.00731111,0.02611515,-0.11627381,0.00602949,-0.00186927,
 0.00156282,-0.00028400,0.00169817,-0.00001847,-0.00029544,0.00047016,0
 .00183974,-0.00085619,0.00046712,0.00003812,-0.00012773,0.00011143,-0.
 00011499,-0.00002642,0.05415708,0.33185789,0.00127462,-0.00142474,0.00
 647689,0.00253424,0.00241148,0.00548270,-0.00169157,-0.00110990,-0.000
 62499,-0.00008608,0.00179123,0.00371909,0.01794894,0.00009088,0.001774
 80,0.04536031,-0.00209508,-0.04881065,-0.00039731,-0.00051358,-0.00279
 930,0.00010259,0.00001481,0.00040575,-0.00108078,-0.00099185,-0.002780
 45,0.00262297,-0.00023815,-0.00067118,-0.00024246,-0.00021180,-0.00004
 859,-0.10241306,-0.05146823,0.09762381,-0.00141366,-0.00076331,0.00023
 280,-0.00090085,0.00506026,0.00059393,0.01012077,0.00363284,-0.0020724
 1,-0.12627940,-0.04856825,0.01917996,-0.02031137,-0.02730217,0.0091387
 2,-0.00222050,0.00328331,0.00181414,0.00007980,-0.00007095,-0.00015090
 ,0.00078793,0.00098998,-0.00034038,0.00109541,-0.00145753,-0.00104434,
 0.00189699,0.00314863,-0.00177901,0.00059575,0.00078580,0.00037829,-0.
 00005268,-0.00134513,0.00032115,0.54233224,0.00102463,-0.00024594,-0.0
 0031258,0.00342374,-0.00290843,0.00053107,-0.01218172,-0.02918879,0.00
 746629,-0.05608280,-0.16634070,0.02641284,-0.00544147,0.00273730,0.001
 22382,0.00208957,0.00159629,0.00061005,-0.00008948,0.00001223,-0.00008
 494,-0.00083938,-0.00058522,0.00025206,0.00168531,0.00064158,-0.001185
 94,-0.00751349,-0.00058151,0.00106033,0.00089061,0.00164559,0.00000281
 ,0.00071711,0.00054436,-0.00016032,-0.04734464,0.53477661,-0.00003792,
 0.00006950,-0.00086704,0.00084097,0.00018189,0.00524416,0.00031448,0.0
 0408593,0.00230701,0.02031687,0.02480705,-0.07898782,0.00583692,0.0058
 9885,0.00099782,0.00199534,0.00035385,0.00810580,-0.00014809,-0.000088
 78,-0.00063090,-0.00006384,-0.00013898,-0.00006965,-0.00151966,-0.0005
 1345,-0.00441697,-0.00016604,-0.00121860,-0.00397850,0.00036232,0.0000
 2548,0.00283953,0.00000963,0.00028076,0.00045401,0.00612196,0.01052997
 ,0.53460581,-0.00025350,0.00001695,0.00001223,-0.00009319,-0.00012448,
 0.00015790,-0.00186580,0.00215939,0.00084916,-0.01546026,-0.00474288,-
 0.00846333,0.00022712,-0.00260851,-0.00029704,0.00010363,-0.00019496,0
 .00113695,-0.00001745,-0.00006175,-0.00004048,-0.00000064,-0.00009475,
 -0.00002404,-0.00003231,-0.00018255,-0.00066329,0.00165629,-0.00020493
 ,-0.00039225,0.00023202,-0.00013326,-0.00065090,-0.00047623,-0.0002178
 6,0.00022704,-0.18565567,-0.02187481,-0.12520502,0.20320664,-0.0008159
 6,-0.00002543,0.00000793,0.00056182,0.00085024,0.00072515,-0.00305145,
 -0.00008994,0.00076014,-0.02033200,-0.00333246,-0.01674677,0.00050105,
 -0.00222972,-0.00039627,-0.00001761,-0.00030765,0.00102576,-0.00000427
 ,-0.00001118,-0.00002605,0.00005254,-0.00005933,-0.00007370,-0.0001801
 9,0.00015222,-0.00027333,0.00223783,0.00044427,-0.00021715,0.00051539,
 -0.00209096,-0.00130408,-0.00021225,-0.00018737,0.00020050,-0.02509596
 ,-0.05329338,-0.02309090,0.02904056,0.05619555,0.00006795,0.00006762,-
 0.00000165,0.00013709,-0.00025499,-0.00045140,-0.00120941,0.00032018,0
 .00094413,0.00885952,0.00032844,0.00885887,0.00070602,0.00090117,-0.00
 037734,0.00002376,-0.00016312,-0.00067181,0.00002741,0.00001390,0.0000
 5864,-0.00004085,-0.00002622,0.00003727,0.00012929,0.00002536,0.000277
 75,0.00032982,0.00036953,0.00000678,0.00016361,-0.00127571,-0.00062315
 ,0.00016678,0.00006336,-0.00006673,-0.12470591,-0.02141368,-0.15934804
 ,0.13711061,0.02319978,0.17113285,-0.00019578,0.00000008,0.00007679,-0
 .00026759,-0.00012942,-0.00015744,-0.00120184,0.00173559,-0.00041602,-
 0.01068162,-0.00018222,0.01674214,0.00010017,-0.00246645,0.00086553,-0
 .00041438,-0.00044814,-0.00109398,0.00000289,-0.00004048,0.00007934,0.
 00002890,-0.00006103,0.00004379,0.00022770,0.00002411,0.00069182,0.001
 30063,-0.00032244,-0.00009341,0.00018154,0.00056237,0.00004035,-0.0005
 2362,-0.00023745,0.00006251,-0.08803346,0.01326842,0.09272139,0.011601
 10,-0.00297757,-0.02295043,0.09514978,-0.00071758,0.00000261,0.0003203
 5,0.00008223,0.00059515,-0.00116233,-0.00240006,-0.00026023,0.00071784
 ,-0.01184553,0.00350647,0.02497423,0.00047881,-0.00208186,0.00074702,-
 0.00045482,-0.00053565,-0.00088293,0.00000646,0.00000126,0.00004141,0.
 00009110,-0.00002295,0.00005698,-0.00007837,0.00024052,0.00030213,0.00
 183679,0.00025158,-0.00071196,0.00090802,-0.00129789,0.00118981,-0.000
 27019,-0.00021870,-0.00003102,0.01099169,-0.05177665,-0.02329783,0.001
 90879,-0.00109510,-0.00282945,-0.01025105,0.05470616,0.00025539,-0.000
 07076,-0.00008781,-0.00027254,0.00000928,-0.00002160,0.00305526,-0.000
 84107,0.00045082,0.00353912,0.00207463,-0.00275882,-0.00105295,0.00074
 427,-0.00040042,-0.00000712,0.00034210,0.00007512,-0.00000429,0.000023
 83,0.00002588,0.00001531,0.00007351,-0.00002857,-0.00008534,-0.0000180
 1,-0.00007026,-0.00151082,-0.00031370,0.00055339,-0.00092446,0.0013727
 1,-0.00136706,0.00012677,0.00010028,0.00001178,0.09305457,-0.02614770,
 -0.25849684,0.00872814,-0.00328073,-0.02007454,-0.10404169,0.02653817,
 0.28069262,0.00005471,-0.00000547,-0.00000029,0.00079838,-0.00071946,-
 0.00000547,-0.00375556,-0.00249857,0.00141234,0.01131374,-0.01845901,0
 .00013993,0.00075095,-0.00172159,0.00007389,0.00011279,-0.00014991,-0.
 00002596,-0.00000908,0.00002336,0.00000247,-0.00019015,-0.00026293,0.0
 0004381,-0.00010676,0.00042387,0.00002780,0.00026946,0.00033996,0.0000
 2076,0.00044224,-0.00056516,-0.00027965,0.00014081,0.00012242,-0.00005
 972,-0.13164071,0.12821144,-0.00140588,-0.01320234,0.01978153,0.001164
 43,-0.00730922,0.00971087,-0.00084578,0.14232741,-0.00023986,0.0003596
 1,0.00000441,0.00131433,-0.00092537,-0.00010130,-0.00386748,-0.0023376
 6,0.00134433,0.01441388,-0.02264850,0.00017854,0.00222528,0.00132047,-
 0.00069379,0.00009397,-0.00028384,0.00000515,-0.00005904,0.00004251,0.
 00000914,-0.00029149,-0.00032097,0.00008496,-0.00091554,0.00076055,0.0
 0012980,-0.00057432,0.00051356,0.00013730,-0.00032567,-0.00004515,-0.0
 0011526,-0.00033599,0.00010656,0.00004790,0.12405672,-0.23690182,0.002
 13077,-0.00278433,0.00501828,0.00068089,0.00142533,-0.00207974,-0.0005
 5525,-0.13420645,0.25736759,0.00003525,-0.00004583,0.00004851,-0.00031
 276,0.00033349,0.00028188,0.00161941,0.00105156,0.00057919,-0.00483045
 ,0.00720251,-0.00114966,-0.00052262,0.00015048,-0.00003150,-0.00006291
 ,0.00005765,-0.00011045,0.00001497,-0.00000853,0.00001729,0.00004813,0
 .00007886,-0.00019318,0.00023038,-0.00015690,0.00029762,0.00015917,-0.
 00005877,0.00058317,-0.00031628,-0.00006421,-0.00119048,0.00000957,-0.
 00005014,-0.00004634,-0.00077796,0.00124386,-0.04751900,-0.01243196,0.
 01952969,0.00027852,0.01741517,-0.02599657,0.00148377,-0.00026489,-0.0
 0326374,0.04667146,0.00233017,-0.00059295,-0.00057594,0.00027898,-0.00
 115600,0.00017636,-0.00157445,0.00020933,0.00040653,-0.00027807,-0.001
 98043,0.00071782,-0.00084911,0.00481584,-0.00013290,-0.04915725,-0.030
 49590,0.01391164,-0.00229423,-0.00023513,0.00051962,0.00054214,-0.0001
 3944,-0.00011508,-0.00010833,-0.00038577,-0.00007080,0.00304509,-0.000
 33540,-0.00066614,-0.00026821,-0.00021989,0.00008917,-0.12169645,-0.03
 822115,0.01868280,-0.00030394,-0.00000044,0.00002475,0.00008111,0.0000
 2153,0.00000638,0.00008500,0.00002539,-0.00004560,-0.00002330,0.000071
 28,-0.00000647,0.57242803,0.00845798,0.00179462,-0.00219822,0.00011024
 ,-0.00054678,0.00010244,-0.00220858,0.00129775,0.00034795,0.00114927,-
 0.00089349,0.00014308,0.00457823,0.00006203,-0.00069616,-0.01106549,0.
 00810394,0.00028646,0.00146707,-0.00090328,-0.00018210,0.00049761,-0.0
 0018596,-0.00009258,-0.00018162,0.00017237,-0.00009482,0.00397331,-0.0
 0054867,-0.00081331,-0.00035504,-0.00026852,0.00011560,-0.06912528,-0.
 17420402,0.03184037,0.00008205,-0.00024860,-0.00000852,0.00018950,0.00
 009983,-0.00003198,0.00019047,0.00010125,-0.00007723,-0.00006412,0.000
 06979,0.00000269,-0.07818401,0.51886387,-0.00194435,-0.00026270,-0.000
 32849,-0.00001490,0.00037320,0.00023300,0.00077160,-0.00016955,0.00033
 397,0.00024512,0.00081255,0.00150618,-0.00009759,-0.00074714,0.0020650
 5,0.01097445,0.00444074,-0.00867287,0.00026262,0.00018211,-0.00011505,
 -0.00021137,0.00004364,-0.00005599,-0.00010168,-0.00005117,-0.00068285
 ,-0.00131684,0.00010849,-0.00004010,0.00010939,0.00008647,-0.00004394,
 0.02335486,0.02523308,-0.07014467,0.00001227,0.00000918,-0.00019253,-0
 .00007931,-0.00004621,0.00002303,-0.00001030,0.00000816,0.00001764,0.0
 0001399,-0.00002626,-0.00000220,0.01295426,0.02561029,0.57109513,0.000
 39873,0.00124188,-0.00013763,-0.00096557,-0.00044650,-0.00021474,0.000
 02065,0.00099271,-0.00031454,0.00078137,-0.00060601,-0.00030699,-0.001
 36236,-0.00070356,-0.00008786,0.00566863,-0.00090611,0.00102353,-0.000
 90269,0.00004025,0.00143022,-0.00000159,0.00000208,0.00005238,0.000069
 10,0.00011465,0.00010976,0.00001471,-0.00007161,0.00009388,-0.00000333
 ,0.00000434,0.00003044,0.00259131,-0.01687835,0.02375789,-0.00000562,-
 0.00000816,0.00004182,0.00000492,0.00000998,-0.00000250,-0.00000809,-0
 .00000089,-0.00000130,0.00000535,0.00000685,-0.00000164,-0.08182629,0.
 03633311,-0.07329394,0.08142869,-0.00059354,0.00047337,-0.00054009,-0.
 00018662,-0.00002734,0.00014257,0.00037513,0.00009885,-0.00003867,0.00
 012027,0.00006777,-0.00027207,-0.00112826,-0.00038624,-0.00001084,0.00
 665891,-0.00045546,-0.00115667,0.00022077,0.00025306,-0.00021087,-0.00
 008615,0.00003473,-0.00000059,0.00014628,0.00015409,0.00011785,-0.0007
 4077,0.00007214,0.00015271,0.00006048,0.00005145,-0.00002494,-0.005772
 25,-0.02280972,0.02734852,0.00000554,0.00003683,0.00002620,-0.00003633
 ,-0.00000973,0.00000447,-0.00003483,-0.00001966,0.00000879,0.00001569,
 -0.00000976,0.00000504,0.03338422,-0.09304291,0.08489424,-0.03153902,0
 .10813952,0.00012222,0.00077009,-0.00006276,0.00027896,-0.00028584,0.0
 0002829,-0.00029102,-0.00017580,0.00000993,-0.00022672,0.00002025,0.00
 013774,0.00087355,0.00015868,-0.00028871,-0.00391066,0.00075467,0.0010
 6527,0.00014276,-0.00076539,-0.00038868,0.00005351,-0.00000379,-0.0000
 0836,-0.00007940,-0.00010395,-0.00002280,0.00040439,-0.00008681,-0.000
 05827,-0.00004480,-0.00003264,0.00000738,0.00840537,0.01061510,-0.0028
 0947,-0.00000357,-0.00000957,-0.00000508,0.00001272,-0.00000620,-0.000
 00004,0.00000469,-0.00000637,0.00000221,-0.00000899,-0.00000536,-0.000
 00072,-0.06973963,0.08636189,-0.23683757,0.07268332,-0.10360504,0.2529
 3251,0.00014646,-0.00026504,0.00008290,-0.00007525,0.00003923,0.000042
 84,0.00034905,-0.00007173,-0.00006774,-0.00004003,-0.00023787,0.000044
 60,-0.00116616,0.00049056,0.00023843,0.00204919,-0.00352949,0.00021930
 ,0.00007256,-0.00003033,-0.00009906,-0.00006357,0.00002089,0.00001591,
 0.00004387,-0.00003446,-0.00000271,-0.00048927,0.00005037,0.00009382,0
 .00005353,0.00002768,-0.00001733,-0.02787070,-0.00001641,0.00611530,-0
 .00007219,0.00008185,-0.00000955,-0.00004975,-0.00003896,0.00001213,-0
 .00004388,-0.00003394,0.00001920,0.00001432,-0.00001605,0.00000012,-0.
 26634930,0.10350522,0.02974343,-0.00676677,0.00514114,0.00075125,0.296
 59818,0.00033233,-0.00123027,0.00016717,-0.00019702,0.00043648,-0.0000
 0078,0.00019391,0.00009377,-0.00005841,0.00010822,-0.00042581,0.000041
 24,-0.00141260,0.00053568,0.00026572,-0.00242172,-0.00371124,0.0011664
 3,0.00042359,0.00075448,-0.00026675,-0.00005379,-0.00000238,0.00001573
 ,0.00003771,-0.00004141,-0.00000076,-0.00011331,0.00006182,0.00001264,
 0.00002357,0.00000612,-0.00000717,-0.03676075,0.00776769,0.00679605,-0
 .00008305,0.00005060,0.00000121,-0.00002042,-0.00001173,0.00000883,-0.
 00001861,-0.00000984,0.00000297,0.00000933,0.00000427,-0.00000211,0.11
 575666,-0.10237687,-0.01746797,0.01089615,-0.00416766,-0.00315928,-0.1
 0557036,0.10929373,-0.00000742,0.00029500,0.00030401,0.00007859,-0.000
 05125,0.00014374,-0.00010788,-0.00000167,0.00000494,-0.00000774,0.0001
 1534,-0.00001523,0.00052608,-0.00014119,0.00020424,0.00005107,0.001402
 88,0.00035467,-0.00016769,-0.00016974,-0.00035049,0.00002720,-0.000000
 24,0.00001985,-0.00001363,0.00001465,0.00000747,0.00011851,-0.00002240
 ,-0.00003709,-0.00001669,-0.00000803,-0.00000308,0.01166845,-0.0010620
 6,-0.00162024,0.00001538,-0.00003406,-0.00005712,0.00000375,0.00000089
 ,0.00000033,0.00002246,0.00001816,-0.00000744,-0.00000372,0.00000332,0
 .00000382,0.02789205,-0.01484774,-0.05786667,-0.02549372,0.01168814,0.
 00597318,-0.03707978,0.01341167,0.05453574,0.00030044,0.00076257,-0.00
 030731,-0.00079475,-0.00015904,0.00066462,0.00015998,0.00100539,-0.000
 06790,0.00089163,-0.00050000,0.00011927,-0.00136948,-0.00057193,0.0007
 7327,0.00563732,-0.00160373,-0.00273263,-0.00142981,-0.00004944,-0.001
 02093,-0.00003676,-0.00001217,-0.00003801,0.00002950,0.00009710,-0.000
 16246,-0.00013259,-0.00005559,-0.00003565,-0.00000116,0.00000519,-0.00
 003145,-0.00796762,-0.02347685,-0.01303938,-0.00001883,-0.00001630,-0.
 00003045,-0.00000570,0.00000398,0.00000431,0.00000174,0.00001229,-0.00
 000187,0.00000696,0.00000859,-0.00000425,-0.05406160,0.00065006,-0.001
 37172,0.00085886,-0.00601067,-0.00942797,0.00365971,0.01887016,0.02249
 472,0.05427216,-0.00038649,0.00033017,0.00063346,-0.00024366,0.0000502
 2,-0.00006680,0.00040575,0.00005991,-0.00018199,0.00022729,0.00016319,
 0.00016502,-0.00114646,-0.00030252,0.00053655,0.00715119,-0.00058545,-
 0.00140681,0.00024998,0.00047371,-0.00006363,-0.00009069,0.00003902,0.
 00003054,0.00008942,0.00012129,-0.00020961,-0.00082261,0.00009925,0.00
 016559,0.00007231,0.00005931,-0.00002064,-0.01615291,-0.02953449,-0.01
 229707,-0.00000584,0.00002964,-0.00003442,-0.00003338,-0.00001641,0.00
 001161,-0.00003667,-0.00000672,0.00001391,0.00001420,-0.00001038,-0.00
 000905,-0.00233772,-0.15734636,-0.12303114,0.00151818,0.01154666,0.009
 56535,0.00048770,-0.00702740,-0.01061168,0.01104039,0.18185739,-0.0001
 1611,-0.00131494,0.00017870,0.00014455,0.00039923,-0.00021999,0.000092
 55,-0.00030510,-0.00009058,-0.00018073,0.00018339,-0.00006801,-0.00003
 710,0.00015351,-0.00036538,-0.00026508,0.00017183,0.00122582,0.0001940
 2,0.00059342,-0.00008178,-0.00001394,-0.00000191,0.00002252,0.00002306
 ,0.00001731,0.00004963,-0.00012918,0.00009784,0.00006205,0.00002518,0.
 00001349,-0.00000272,-0.00047139,0.00837772,0.01447378,0.00001129,0.00
 000649,0.00001536,0.00000910,0.00001154,-0.00000345,-0.00000271,0.0000
 0421,0.00000014,0.00000092,0.00000445,-0.00000171,-0.00402883,-0.12576
 811,-0.20029108,0.00063163,-0.01852876,-0.01967408,-0.00010304,-0.0009
 2644,-0.00159464,0.00421580,0.13681083,0.20636543\\-0.00000634,0.00000
 440,0.00000168,0.00000588,0.00000481,-0.00000243,-0.00000061,-0.000001
 57,0.00000247,-0.00000682,0.00000317,-0.00000236,0.00000502,0.00000292
 ,-0.00000116,-0.00000931,-0.00001257,0.00000569,0.00000324,-0.00000271
 ,-0.00000106,0.00000081,0.00000157,-0.00000026,-0.00000209,-0.00000076
 ,0.00000034,0.00000307,0.00000542,-0.00000372,0.00000039,0.00000382,0.
 00000068,0.00000574,-0.00000297,-0.00000323,-0.00000297,0.00000155,0.0
 0000332,-0.00000210,0.00000260,0.00000026,-0.00000262,0.00000235,-0.00
 000056,-0.00000342,0.00000210,-0.00000071,0.00000516,0.00000052,0.0000
 0336,0.00000252,-0.00000515,0.00000016,0.00000214,-0.00000471,-0.00000
 057,0.00000230,-0.00000480,-0.00000190\\\@
 The archive entry for this job was punched.


 GROWING OLD ISN'T SO BAD -- WHEN YOU CONSIDER THE ALTERNATIVE.

                     -- MAURICE CHEVALIER
 Job cpu time:       0 days  0 hours 22 minutes 55.7 seconds.
 Elapsed time:       0 days  0 hours  2 minutes 52.2 seconds.
 File lengths (MBytes):  RWF=    123 Int=      0 D2E=      0 Chk=      9 Scr=      1
 Normal termination of Gaussian 16 at Thu Sep 23 12:36:52 2021.
