 Entering Gaussian System, Link 0=/home/rong/g16/g16
 Input=/home/rong/gdata/050522/a5.gjf
 Output=/home/rong/gdata/050522/a5.log
 Initial command:
 /home/rong/g16/l1.exe "/home/rong//tmp/Gau-1819694.inp" -scrdir="/home/rong//tmp/"
 Entering Link 1 = /home/rong/g16/l1.exe PID=   1819696.
  
 Copyright (c) 1988-2019, Gaussian, Inc.  All Rights Reserved.
  
 This is part of the Gaussian(R) 16 program.  It is based on
 the Gaussian(R) 09 system (copyright 2009, Gaussian, Inc.),
 the Gaussian(R) 03 system (copyright 2003, Gaussian, Inc.),
 the Gaussian(R) 98 system (copyright 1998, Gaussian, Inc.),
 the Gaussian(R) 94 system (copyright 1995, Gaussian, Inc.),
 the Gaussian 92(TM) system (copyright 1992, Gaussian, Inc.),
 the Gaussian 90(TM) system (copyright 1990, Gaussian, Inc.),
 the Gaussian 88(TM) system (copyright 1988, Gaussian, Inc.),
 the Gaussian 86(TM) system (copyright 1986, Carnegie Mellon
 University), and the Gaussian 82(TM) system (copyright 1983,
 Carnegie Mellon University). Gaussian is a federally registered
 trademark of Gaussian, Inc.
  
 This software contains proprietary and confidential information,
 including trade secrets, belonging to Gaussian, Inc.
  
 This software is provided under written license and may be
 used, copied, transmitted, or stored only in accord with that
 written license.
  
 The following legend is applicable only to US Government
 contracts under FAR:
  
                    RESTRICTED RIGHTS LEGEND
  
 Use, reproduction and disclosure by the US Government is
 subject to restrictions as set forth in subparagraphs (a)
 and (c) of the Commercial Computer Software - Restricted
 Rights clause in FAR 52.227-19.
  
 Gaussian, Inc.
 340 Quinnipiac St., Bldg. 40, Wallingford CT 06492
  
  
 ---------------------------------------------------------------
 Warning -- This program may not be used in any manner that
 competes with the business of Gaussian, Inc. or will provide
 assistance to any competitor of Gaussian, Inc.  The licensee
 of this program is prohibited from giving any competitor of
 Gaussian, Inc. access to this program.  By using this program,
 the user acknowledges that Gaussian, Inc. is engaged in the
 business of creating and licensing software in the field of
 computational chemistry and represents and warrants to the
 licensee that it is not a competitor of Gaussian, Inc. and that
 it will not use this program in any manner prohibited above.
 ---------------------------------------------------------------
  

 Cite this work as:
 Gaussian 16, Revision C.01,
 M. J. Frisch, G. W. Trucks, H. B. Schlegel, G. E. Scuseria, 
 M. A. Robb, J. R. Cheeseman, G. Scalmani, V. Barone, 
 G. A. Petersson, H. Nakatsuji, X. Li, M. Caricato, A. V. Marenich, 
 J. Bloino, B. G. Janesko, R. Gomperts, B. Mennucci, H. P. Hratchian, 
 J. V. Ortiz, A. F. Izmaylov, J. L. Sonnenberg, D. Williams-Young, 
 F. Ding, F. Lipparini, F. Egidi, J. Goings, B. Peng, A. Petrone, 
 T. Henderson, D. Ranasinghe, V. G. Zakrzewski, J. Gao, N. Rega, 
 G. Zheng, W. Liang, M. Hada, M. Ehara, K. Toyota, R. Fukuda, 
 J. Hasegawa, M. Ishida, T. Nakajima, Y. Honda, O. Kitao, H. Nakai, 
 T. Vreven, K. Throssell, J. A. Montgomery, Jr., J. E. Peralta, 
 F. Ogliaro, M. J. Bearpark, J. J. Heyd, E. N. Brothers, K. N. Kudin, 
 V. N. Staroverov, T. A. Keith, R. Kobayashi, J. Normand, 
 K. Raghavachari, A. P. Rendell, J. C. Burant, S. S. Iyengar, 
 J. Tomasi, M. Cossi, J. M. Millam, M. Klene, C. Adamo, R. Cammi, 
 J. W. Ochterski, R. L. Martin, K. Morokuma, O. Farkas, 
 J. B. Foresman, and D. J. Fox, Gaussian, Inc., Wallingford CT, 2019.
 
 ******************************************
 Gaussian 16:  ES64L-G16RevC.01  3-Jul-2019
                12-Jun-2022 
 ******************************************
 %chk=/home/rong/gdata/050522/a5.chk
 %mem=90GB
 %nprocshared=66
 Will use up to   66 processors via shared memory.
 ----------------------------------------------------
 # opt freq b3lyp/6-31g(d) scrf=(smd,solvent=toluene)
 ----------------------------------------------------
 1/18=20,19=15,26=3,38=1/1,3;
 2/9=110,12=2,17=6,18=5,40=1/2;
 3/5=1,6=6,7=1,11=2,25=1,30=1,70=32201,71=1,72=13,74=-5/1,2,3;
 4//1;
 5/5=2,38=5,53=13/2;
 6/7=2,8=2,9=2,10=2,28=1/1;
 7//1,2,3,16;
 1/18=20,19=15,26=3/3(2);
 2/9=110/2;
 99//99;
 2/9=110/2;
 3/5=1,6=6,7=1,11=2,25=1,30=1,70=32205,71=1,72=13,74=-5/1,2,3;
 4/5=5,16=3,69=1/1;
 5/5=2,38=5,53=13/2;
 7//1,2,3,16;
 1/18=20,19=15,26=3/3(-5);
 2/9=110/2;
 6/7=2,8=2,9=2,10=2,19=2,28=1/1;
 99/9=1/99;
 --
 a5
 --
 Symbolic Z-matrix:
 Charge =  0 Multiplicity = 1
 C                    -0.80882  -0.98529   0. 
 C                     0.58634  -0.98529   0. 
 C                     1.28387   0.22246   0. 
 C                     0.58622   1.43097  -0.0012 
 C                    -0.8086    1.43089  -0.00168 
 C                    -1.50621   0.22268  -0.00068 
 H                    -1.35858  -1.93761   0.00045 
 H                    -1.35873   2.38317  -0.00263 
 N                    -2.97621   0.22293  -0.00092 
 O                    -3.54635   0.22478  -1.05608 
 O                    -3.54668   0.22126   1.05405 
 O                     2.71387   0.22256   0.00082 
 H                     3.03485   0.22109  -0.90393 
 C                     1.35672   2.76435  -0.00128 
 H                     1.99661   2.80658   0.85526 
 H                     1.94673   2.83529  -0.89109 
 H                     0.66219   3.57763   0.03193 
 C                     1.35589  -2.31923   0.00184 
 H                     1.94473  -2.39252  -0.88855 
 H                     1.99681  -2.36006   0.85767 
 H                     0.66082  -3.13193   0.03768 
 

 GradGradGradGradGradGradGradGradGradGradGradGradGradGradGradGradGradGrad
 Berny optimization.
 Initialization pass.
                           ----------------------------
                           !    Initial Parameters    !
                           ! (Angstroms and Degrees)  !
 --------------------------                            --------------------------
 ! Name  Definition              Value          Derivative Info.                !
 --------------------------------------------------------------------------------
 ! R1    R(1,2)                  1.3952         estimate D2E/DX2                !
 ! R2    R(1,6)                  1.3948         estimate D2E/DX2                !
 ! R3    R(1,7)                  1.0996         estimate D2E/DX2                !
 ! R4    R(2,3)                  1.3947         estimate D2E/DX2                !
 ! R5    R(2,18)                 1.54           estimate D2E/DX2                !
 ! R6    R(3,4)                  1.3954         estimate D2E/DX2                !
 ! R7    R(3,12)                 1.43           estimate D2E/DX2                !
 ! R8    R(4,5)                  1.3948         estimate D2E/DX2                !
 ! R9    R(4,14)                 1.54           estimate D2E/DX2                !
 ! R10   R(5,6)                  1.3951         estimate D2E/DX2                !
 ! R11   R(5,8)                  1.0998         estimate D2E/DX2                !
 ! R12   R(6,9)                  1.47           estimate D2E/DX2                !
 ! R13   R(9,10)                 1.1993         estimate D2E/DX2                !
 ! R14   R(9,11)                 1.1993         estimate D2E/DX2                !
 ! R15   R(12,13)                0.96           estimate D2E/DX2                !
 ! R16   R(14,15)                1.07           estimate D2E/DX2                !
 ! R17   R(14,16)                1.07           estimate D2E/DX2                !
 ! R18   R(14,17)                1.07           estimate D2E/DX2                !
 ! R19   R(18,19)                1.07           estimate D2E/DX2                !
 ! R20   R(18,20)                1.07           estimate D2E/DX2                !
 ! R21   R(18,21)                1.07           estimate D2E/DX2                !
 ! A1    A(2,1,6)              119.9985         estimate D2E/DX2                !
 ! A2    A(2,1,7)              119.9972         estimate D2E/DX2                !
 ! A3    A(6,1,7)              120.0043         estimate D2E/DX2                !
 ! A4    A(1,2,3)              120.0086         estimate D2E/DX2                !
 ! A5    A(1,2,18)             119.9808         estimate D2E/DX2                !
 ! A6    A(3,2,18)             120.0105         estimate D2E/DX2                !
 ! A7    A(2,3,4)              119.9942         estimate D2E/DX2                !
 ! A8    A(2,3,12)             120.0128         estimate D2E/DX2                !
 ! A9    A(4,3,12)             119.993          estimate D2E/DX2                !
 ! A10   A(3,4,5)              119.994          estimate D2E/DX2                !
 ! A11   A(3,4,14)             119.9811         estimate D2E/DX2                !
 ! A12   A(5,4,14)             120.0249         estimate D2E/DX2                !
 ! A13   A(4,5,6)              120.0047         estimate D2E/DX2                !
 ! A14   A(4,5,8)              120.0113         estimate D2E/DX2                !
 ! A15   A(6,5,8)              119.984          estimate D2E/DX2                !
 ! A16   A(1,6,5)              120.0            estimate D2E/DX2                !
 ! A17   A(1,6,9)              120.008          estimate D2E/DX2                !
 ! A18   A(5,6,9)              119.992          estimate D2E/DX2                !
 ! A19   A(6,9,10)             118.3934         estimate D2E/DX2                !
 ! A20   A(6,9,11)             118.3927         estimate D2E/DX2                !
 ! A21   A(10,9,11)            123.2139         estimate D2E/DX2                !
 ! A22   A(3,12,13)            109.5            estimate D2E/DX2                !
 ! A23   A(4,14,15)            109.4712         estimate D2E/DX2                !
 ! A24   A(4,14,16)            109.4712         estimate D2E/DX2                !
 ! A25   A(4,14,17)            109.4712         estimate D2E/DX2                !
 ! A26   A(15,14,16)           109.4713         estimate D2E/DX2                !
 ! A27   A(15,14,17)           109.4712         estimate D2E/DX2                !
 ! A28   A(16,14,17)           109.4712         estimate D2E/DX2                !
 ! A29   A(2,18,19)            109.4712         estimate D2E/DX2                !
 ! A30   A(2,18,20)            109.4712         estimate D2E/DX2                !
 ! A31   A(2,18,21)            109.4712         estimate D2E/DX2                !
 ! A32   A(19,18,20)           109.4713         estimate D2E/DX2                !
 ! A33   A(19,18,21)           109.4712         estimate D2E/DX2                !
 ! A34   A(20,18,21)           109.4712         estimate D2E/DX2                !
 ! D1    D(6,1,2,3)              0.0323         estimate D2E/DX2                !
 ! D2    D(6,1,2,18)           179.9532         estimate D2E/DX2                !
 ! D3    D(7,1,2,3)           -179.9729         estimate D2E/DX2                !
 ! D4    D(7,1,2,18)            -0.052          estimate D2E/DX2                !
 ! D5    D(2,1,6,5)              0.0149         estimate D2E/DX2                !
 ! D6    D(2,1,6,9)            179.9892         estimate D2E/DX2                !
 ! D7    D(7,1,6,5)           -179.9798         estimate D2E/DX2                !
 ! D8    D(7,1,6,9)             -0.0056         estimate D2E/DX2                !
 ! D9    D(1,2,3,4)             -0.0568         estimate D2E/DX2                !
 ! D10   D(1,2,3,12)           179.9619         estimate D2E/DX2                !
 ! D11   D(18,2,3,4)          -179.9777         estimate D2E/DX2                !
 ! D12   D(18,2,3,12)            0.041          estimate D2E/DX2                !
 ! D13   D(1,2,18,19)          118.0278         estimate D2E/DX2                !
 ! D14   D(1,2,18,20)         -121.9722         estimate D2E/DX2                !
 ! D15   D(1,2,18,21)           -1.9722         estimate D2E/DX2                !
 ! D16   D(3,2,18,19)          -62.0513         estimate D2E/DX2                !
 ! D17   D(3,2,18,20)           57.9487         estimate D2E/DX2                !
 ! D18   D(3,2,18,21)          177.9487         estimate D2E/DX2                !
 ! D19   D(2,3,4,5)              0.0341         estimate D2E/DX2                !
 ! D20   D(2,3,4,14)          -179.9964         estimate D2E/DX2                !
 ! D21   D(12,3,4,5)          -179.9846         estimate D2E/DX2                !
 ! D22   D(12,3,4,14)           -0.0151         estimate D2E/DX2                !
 ! D23   D(2,3,12,13)           89.9245         estimate D2E/DX2                !
 ! D24   D(4,3,12,13)          -90.0568         estimate D2E/DX2                !
 ! D25   D(3,4,5,6)              0.0131         estimate D2E/DX2                !
 ! D26   D(3,4,5,8)           -179.9995         estimate D2E/DX2                !
 ! D27   D(14,4,5,6)          -179.9563         estimate D2E/DX2                !
 ! D28   D(14,4,5,8)             0.0311         estimate D2E/DX2                !
 ! D29   D(3,4,14,15)          -58.0575         estimate D2E/DX2                !
 ! D30   D(3,4,14,16)           61.9426         estimate D2E/DX2                !
 ! D31   D(3,4,14,17)         -178.0575         estimate D2E/DX2                !
 ! D32   D(5,4,14,15)          121.912          estimate D2E/DX2                !
 ! D33   D(5,4,14,16)         -118.088          estimate D2E/DX2                !
 ! D34   D(5,4,14,17)            1.912          estimate D2E/DX2                !
 ! D35   D(4,5,6,1)             -0.0376         estimate D2E/DX2                !
 ! D36   D(4,5,6,9)            179.9881         estimate D2E/DX2                !
 ! D37   D(8,5,6,1)            179.975          estimate D2E/DX2                !
 ! D38   D(8,5,6,9)              0.0007         estimate D2E/DX2                !
 ! D39   D(1,6,9,10)           -90.1224         estimate D2E/DX2                !
 ! D40   D(1,6,9,11)            89.8776         estimate D2E/DX2                !
 ! D41   D(5,6,9,10)            89.8519         estimate D2E/DX2                !
 ! D42   D(5,6,9,11)           -90.1481         estimate D2E/DX2                !
 --------------------------------------------------------------------------------
 Trust Radius=3.00D-01 FncErr=1.00D-07 GrdErr=1.00D-06 EigMax=2.50D+02 EigMin=1.00D-04
 Number of steps in this run=    107 maximum allowed number of steps=    126.
 GradGradGradGradGradGradGradGradGradGradGradGradGradGradGradGradGradGrad

                          Input orientation:                          
 ---------------------------------------------------------------------
 Center     Atomic      Atomic             Coordinates (Angstroms)
 Number     Number       Type             X           Y           Z
 ---------------------------------------------------------------------
      1          6           0       -0.808824   -0.985294    0.000000
      2          6           0        0.586336   -0.985294    0.000000
      3          6           0        1.283874    0.222457    0.000000
      4          6           0        0.586220    1.430966   -0.001199
      5          6           0       -0.808605    1.430888   -0.001678
      6          6           0       -1.506206    0.222682   -0.000682
      7          1           0       -1.358583   -1.937611    0.000450
      8          1           0       -1.358727    2.383169   -0.002631
      9          7           0       -2.976206    0.222927   -0.000923
     10          8           0       -3.546347    0.224779   -1.056079
     11          8           0       -3.546678    0.221263    1.054050
     12          8           0        2.713874    0.222561    0.000824
     13          1           0        3.034851    0.221090   -0.903925
     14          6           0        1.356725    2.764354   -0.001282
     15          1           0        1.996605    2.806582    0.855263
     16          1           0        1.946729    2.835295   -0.891092
     17          1           0        0.662189    3.577630    0.031926
     18          6           0        1.355889   -2.319230    0.001842
     19          1           0        1.944727   -2.392520   -0.888551
     20          1           0        1.996813   -2.360061    0.857674
     21          1           0        0.660816   -3.131935    0.037681
 ---------------------------------------------------------------------
                    Distance matrix (angstroms):
                    1          2          3          4          5
     1  C    0.000000
     2  C    1.395160   0.000000
     3  C    2.416205   1.394712   0.000000
     4  C    2.790065   2.416260   1.395427   0.000000
     5  C    2.416183   2.789946   2.416356   1.394825   0.000000
     6  C    1.394829   2.416183   2.790080   2.416236   1.395138
     7  H    1.099610   2.165553   3.412986   3.889675   3.413102
     8  H    3.413055   3.889707   3.413506   2.165528   1.099761
     9  N    2.481399   3.761848   4.260080   3.761680   2.481464
    10  O    3.173895   4.433808   4.944325   4.432355   3.172017
    11  O    3.172167   4.432675   4.944214   4.433709   3.174082
    12  O    3.724019   2.446494   1.430000   2.446867   3.723965
    13  H    4.128713   2.875355   1.970533   2.876544   4.129141
    14  C    4.330065   3.827971   2.542941   1.540000   2.542987
    15  H    4.793770   4.135052   2.813745   2.148263   3.239766
    16  H    4.794165   4.152302   2.839074   2.148263   3.217962
    17  H    4.794285   4.563666   3.412433   2.148263   2.602472
    18  C    2.542709   1.540000   2.542708   3.828364   4.329946
    19  H    3.217429   2.148263   2.839781   4.153550   4.794354
    20  H    3.239936   2.148263   2.813056   4.135132   4.793761
    21  H    2.601793   2.148263   3.411974   4.563676   4.793756
                    6          7          8          9         10
     6  C    0.000000
     7  H    2.165331   0.000000
     8  H    2.165516   4.320781   0.000000
     9  N    1.470000   2.699005   2.698683   0.000000
    10  O    2.296964   3.252460   3.248705   1.199341   0.000000
    11  O    2.296952   3.249395   3.252313   1.199337   2.110132
    12  O    4.220080   4.609908   4.610240   5.690080   6.348812
    13  H    4.630015   4.977966   4.978999   6.078504   6.582957
    14  C    3.828376   5.429675   2.742076   5.023259   5.621579
    15  H    4.436087   5.873275   3.489056   5.668966   6.406501
    16  H    4.420558   5.873718   3.452509   5.643771   6.084069
    17  H    3.994831   5.873873   2.347771   4.949043   5.489730
    18  C    3.827912   2.741166   5.429707   5.022909   5.623441
    19  H    4.420014   3.450959   5.874084   5.643051   6.085245
    20  H    4.436042   3.488836   5.873500   5.669208   6.408624
    21  H    3.993859   2.346437   5.873376   4.948182   5.492181
                   11         12         13         14         15
    11  O    0.000000
    12  O    6.348527   0.000000
    13  H    6.866599   0.960000   0.000000
    14  C    5.623557   2.881418   3.177902   0.000000
    15  H    6.119753   2.814552   3.295066   1.070000   0.000000
    16  H    6.387038   2.865380   2.831649   1.070000   1.747303
    17  H    5.479461   3.932794   4.215649   1.070000   1.747303
    18  C    5.621068   2.881810   3.176878   5.083585   5.235723
    19  H    6.384441   2.867268   2.831884   5.265581   5.483998
    20  H    6.118176   2.813948   3.292886   5.235184   5.166643
    21  H    5.475394   3.933071   4.214907   5.937342   6.141560
                   16         17         18         19         20
    16  H    0.000000
    17  H    1.747303   0.000000
    18  C    5.264556   5.937599   0.000000
    19  H    5.227816   6.175344   1.070000   0.000000
    20  H    5.482008   6.141600   1.070000   1.747303   0.000000
    21  H    6.174465   6.709567   1.070000   1.747303   1.747303
                   21
    21  H    0.000000
 Stoichiometry    C8H9NO3
 Framework group  C1[X(C8H9NO3)]
 Deg. of freedom    57
 Full point group                 C1      NOp   1
 Largest Abelian subgroup         C1      NOp   1
 Largest concise Abelian subgroup C1      NOp   1
                         Standard orientation:                         
 ---------------------------------------------------------------------
 Center     Atomic      Atomic             Coordinates (Angstroms)
 Number     Number       Type             X           Y           Z
 ---------------------------------------------------------------------
      1          6           0       -0.421680    1.208053   -0.006211
      2          6           0        0.973436    1.207981   -0.017370
      3          6           0        1.670881    0.000195   -0.024016
      4          6           0        0.973188   -1.208279   -0.018304
      5          6           0       -0.421589   -1.208129   -0.006669
      6          6           0       -1.119105    0.000113   -0.001018
      7          1           0       -0.971369    2.160399   -0.001422
      8          1           0       -0.971741   -2.160382   -0.002158
      9          7           0       -2.589056   -0.000056    0.010980
     10          8           0       -3.150739   -0.002812    1.070660
     11          8           0       -3.167947    0.002569   -1.039395
     12          8           0        3.100828    0.000018   -0.036278
     13          1           0        3.429031    0.000672    0.865877
     14          6           0        1.743590   -2.541706   -0.025563
     15          1           0        2.376597   -2.583209   -0.887235
     16          1           0        2.340688   -2.613464    0.859437
     17          1           0        1.048763   -3.354916   -0.053933
     18          6           0        1.743027    2.541879   -0.024188
     19          1           0        2.338972    2.614352    0.861531
     20          1           0        2.377087    2.583434   -0.885083
     21          1           0        1.047737    3.354651   -0.053748
 ---------------------------------------------------------------------
 Rotational constants (GHZ):           1.5601823           0.6378359           0.4872188
 Standard basis: 6-31G(d) (6D, 7F)
 There are   198 symmetry adapted cartesian basis functions of A   symmetry.
 There are   198 symmetry adapted basis functions of A   symmetry.
   198 basis functions,   372 primitive gaussians,   198 cartesian basis functions
    44 alpha electrons       44 beta electrons
       nuclear repulsion energy       684.9907789301 Hartrees.
 NAtoms=   21 NActive=   21 NUniq=   21 SFac= 1.00D+00 NAtFMM=   60 NAOKFM=F Big=F
 Integral buffers will be    131072 words long.
 Raffenetti 2 integral format.
 Two-electron integral symmetry is turned on.
 ------------------------------------------------------------------------------
 Polarizable Continuum Model (PCM)
 =================================
 Model                : PCM.
 Atomic radii         : SMD-Coulomb.
 Polarization charges : Total charges.
 Charge compensation  : None.
 Solution method      : On-the-fly selection.
 Cavity type          : VdW (van der Waals Surface) (Alpha=1.000).
 Cavity algorithm     : GePol (No added spheres)
                        Default sphere list used, NSphG=   21.
                        Lebedev-Laikov grids with approx.  5.0 points / Ang**2.
                        Smoothing algorithm: York/Karplus (Gamma=1.0000).
                        Polarization charges: spherical gaussians, with
                                              point-specific exponents (IZeta= 3).
                        Self-potential: point-specific (ISelfS= 7).
                        Self-field    : sphere-specific E.n sum rule (ISelfD= 2).
 1st derivatives      : Analytical E(r).r(x)/FMM algorithm (CHGder, D1EAlg=3).
                        Cavity 1st derivative terms included.
 Solvent              : Toluene, Eps=   2.374100 Eps(inf)=   2.238315
 ------------------------------------------------------------------------------
 ------------------------------------------------------------------------------
 Atomic radii for non-electrostatic terms: SMD-CDS.
 ------------------------------------------------------------------------------
 Nuclear repulsion after PCM non-electrostatic terms =      684.9839898848 Hartrees.
 One-electron integrals computed using PRISM.
 NBasis=   198 RedAO= T EigKep=  3.29D-04  NBF=   198
 NBsUse=   198 1.00D-06 EigRej= -1.00D+00 NBFU=   198
 ExpMin= 1.61D-01 ExpMax= 5.48D+03 ExpMxC= 8.25D+02 IAcc=3 IRadAn=         5 AccDes= 0.00D+00
 Harris functional with IExCor=  402 and IRadAn=       5 diagonalized for initial guess.
 HarFok:  IExCor=  402 AccDes= 0.00D+00 IRadAn=         5 IDoV= 1 UseB2=F ITyADJ=14
 ICtDFT=  3500011 ScaDFX=  1.000000  1.000000  1.000000  1.000000
 FoFCou: FMM=F IPFlag=           0 FMFlag=      100000 FMFlg1=           0
         NFxFlg=           0 DoJE=T BraDBF=F KetDBF=T FulRan=T
         wScrn=  0.000000 ICntrl=       500 IOpCl=  0 I1Cent=   200000004 NGrid=           0
         NMat0=    1 NMatS0=      1 NMatT0=    0 NMatD0=    1 NMtDS0=    0 NMtDT0=    0
 Petite list used in FoFCou.
 Requested convergence on RMS density matrix=1.00D-08 within 128 cycles.
 Requested convergence on MAX density matrix=1.00D-06.
 Requested convergence on             energy=1.00D-06.
 No special actions if energy rises.
 Inv3:  Mode=1 IEnd=    10659675.
 Iteration    1 A*A^-1 deviation from unit magnitude is 5.77D-15 for   1881.
 Iteration    1 A*A^-1 deviation from orthogonality  is 2.07D-15 for   1881   1757.
 Iteration    1 A^-1*A deviation from unit magnitude is 5.55D-15 for   1881.
 Iteration    1 A^-1*A deviation from orthogonality  is 1.61D-15 for   1885   1695.
 Error on total polarization charges =  0.01479
 SCF Done:  E(RB3LYP) =  -590.589155473     A.U. after   13 cycles
            NFock= 13  Conv=0.48D-08     -V/T= 2.0087
 SMD-CDS (non-electrostatic) energy       (kcal/mol) =      -4.26
 (included in total energy above)

 **********************************************************************

            Population analysis using the SCF Density.

 **********************************************************************

 Orbital symmetries:
       Occupied  (A) (A) (A) (A) (A) (A) (A) (A) (A) (A) (A) (A)
                 (A) (A) (A) (A) (A) (A) (A) (A) (A) (A) (A) (A)
                 (A) (A) (A) (A) (A) (A) (A) (A) (A) (A) (A) (A)
                 (A) (A) (A) (A) (A) (A) (A) (A)
       Virtual   (A) (A) (A) (A) (A) (A) (A) (A) (A) (A) (A) (A)
                 (A) (A) (A) (A) (A) (A) (A) (A) (A) (A) (A) (A)
                 (A) (A) (A) (A) (A) (A) (A) (A) (A) (A) (A) (A)
                 (A) (A) (A) (A) (A) (A) (A) (A) (A) (A) (A) (A)
                 (A) (A) (A) (A) (A) (A) (A) (A) (A) (A) (A) (A)
                 (A) (A) (A) (A) (A) (A) (A) (A) (A) (A) (A) (A)
                 (A) (A) (A) (A) (A) (A) (A) (A) (A) (A) (A) (A)
                 (A) (A) (A) (A) (A) (A) (A) (A) (A) (A) (A) (A)
                 (A) (A) (A) (A) (A) (A) (A) (A) (A) (A) (A) (A)
                 (A) (A) (A) (A) (A) (A) (A) (A) (A) (A) (A) (A)
                 (A) (A) (A) (A) (A) (A) (A) (A) (A) (A) (A) (A)
                 (A) (A) (A) (A) (A) (A) (A) (A) (A) (A) (A) (A)
                 (A) (A) (A) (A) (A) (A) (A) (A) (A) (A)
 The electronic state is 1-A.
 Alpha  occ. eigenvalues --  -19.18299 -19.18295 -19.16970 -14.57552 -10.25111
 Alpha  occ. eigenvalues --  -10.24706 -10.21193 -10.21188 -10.20964 -10.20963
 Alpha  occ. eigenvalues --  -10.18057 -10.18056  -1.25514  -1.07078  -1.03710
 Alpha  occ. eigenvalues --   -0.88322  -0.80695  -0.79259  -0.71228  -0.69755
 Alpha  occ. eigenvalues --   -0.68777  -0.59949  -0.58347  -0.54653  -0.54605
 Alpha  occ. eigenvalues --   -0.53996  -0.51588  -0.48358  -0.45869  -0.43354
 Alpha  occ. eigenvalues --   -0.42234  -0.41795  -0.41694  -0.40435  -0.38617
 Alpha  occ. eigenvalues --   -0.37934  -0.36598  -0.35599  -0.31633  -0.30700
 Alpha  occ. eigenvalues --   -0.30093  -0.30088  -0.25577  -0.24771
 Alpha virt. eigenvalues --   -0.05965  -0.01699  -0.00933   0.06212   0.08819
 Alpha virt. eigenvalues --    0.12638   0.13450   0.14461   0.14694   0.15686
 Alpha virt. eigenvalues --    0.18304   0.18702   0.19179   0.20958   0.21276
 Alpha virt. eigenvalues --    0.23368   0.24223   0.28829   0.33078   0.34626
 Alpha virt. eigenvalues --    0.36170   0.38740   0.38995   0.45519   0.47740
 Alpha virt. eigenvalues --    0.49900   0.51246   0.52693   0.52920   0.54097
 Alpha virt. eigenvalues --    0.54863   0.56195   0.57720   0.58930   0.61157
 Alpha virt. eigenvalues --    0.62015   0.65074   0.67382   0.67595   0.68408
 Alpha virt. eigenvalues --    0.69542   0.72400   0.74194   0.75364   0.76768
 Alpha virt. eigenvalues --    0.79502   0.80281   0.81010   0.82484   0.82994
 Alpha virt. eigenvalues --    0.83178   0.86050   0.86366   0.87096   0.89748
 Alpha virt. eigenvalues --    0.91505   0.93019   0.94572   0.94852   0.95108
 Alpha virt. eigenvalues --    0.95832   0.96961   0.98694   1.01026   1.04755
 Alpha virt. eigenvalues --    1.05073   1.07795   1.07944   1.11692   1.16196
 Alpha virt. eigenvalues --    1.16568   1.17780   1.18168   1.22753   1.26862
 Alpha virt. eigenvalues --    1.30046   1.33736   1.35745   1.38449   1.38839
 Alpha virt. eigenvalues --    1.40200   1.46654   1.47073   1.48879   1.56651
 Alpha virt. eigenvalues --    1.61011   1.69847   1.71434   1.73786   1.73954
 Alpha virt. eigenvalues --    1.76461   1.76569   1.76735   1.80826   1.80952
 Alpha virt. eigenvalues --    1.82224   1.82576   1.84162   1.84493   1.88055
 Alpha virt. eigenvalues --    1.90503   1.93693   1.95145   1.99868   2.02291
 Alpha virt. eigenvalues --    2.02508   2.03567   2.07608   2.09694   2.10588
 Alpha virt. eigenvalues --    2.16928   2.18128   2.18616   2.24354   2.25409
 Alpha virt. eigenvalues --    2.25629   2.29945   2.33541   2.34453   2.34884
 Alpha virt. eigenvalues --    2.35957   2.38725   2.41613   2.43885   2.48461
 Alpha virt. eigenvalues --    2.54061   2.58019   2.61514   2.68513   2.71744
 Alpha virt. eigenvalues --    2.72632   2.76952   2.81393   2.83825   2.87462
 Alpha virt. eigenvalues --    2.87660   2.88366   2.89098   3.01892   3.10602
 Alpha virt. eigenvalues --    3.15351   3.40910   3.81172   3.86944   3.92613
 Alpha virt. eigenvalues --    3.94671   4.09896   4.10209   4.18375   4.23828
 Alpha virt. eigenvalues --    4.36325   4.40794   4.45978   4.78059
          Condensed to atoms (all electrons):
               1          2          3          4          5          6
     1  C    5.006878   0.542809  -0.021751  -0.044593  -0.050411   0.504345
     2  C    0.542809   4.839884   0.465187  -0.067112  -0.044632  -0.010118
     3  C   -0.021751   0.465187   4.773056   0.464998  -0.021758  -0.045515
     4  C   -0.044593  -0.067112   0.464998   4.839609   0.543163  -0.010120
     5  C   -0.050411  -0.044632  -0.021758   0.543163   5.006979   0.504020
     6  C    0.504345  -0.010118  -0.045515  -0.010120   0.504020   4.876536
     7  H    0.354174  -0.029723   0.004382   0.000156   0.004694  -0.045257
     8  H    0.004695   0.000156   0.004378  -0.029727   0.354158  -0.045255
     9  N   -0.043202   0.002303   0.000674   0.002301  -0.043195   0.162146
    10  O    0.000202   0.000037  -0.000014   0.000040   0.000228  -0.081365
    11  O    0.000308  -0.000029   0.000000  -0.000030   0.000293  -0.080540
    12  O    0.003536  -0.082849   0.304363  -0.082797   0.003535  -0.000023
    13  H   -0.000040  -0.001386  -0.022577  -0.001346  -0.000040  -0.000000
    14  C    0.000842   0.007629  -0.052162   0.335329  -0.050439   0.006163
    15  H   -0.000009   0.000059  -0.004509  -0.025329   0.000411  -0.000141
    16  H    0.000021  -0.000035  -0.003892  -0.025647   0.000916  -0.000192
    17  H   -0.000003  -0.000092   0.004595  -0.031040  -0.002541   0.000185
    18  C   -0.050402   0.335280  -0.052208   0.007621   0.000842   0.006169
    19  H    0.000912  -0.025628  -0.003890  -0.000037   0.000021  -0.000192
    20  H    0.000416  -0.025367  -0.004504   0.000060  -0.000009  -0.000141
    21  H   -0.002545  -0.031051   0.004595  -0.000092  -0.000003   0.000187
               7          8          9         10         11         12
     1  C    0.354174   0.004695  -0.043202   0.000202   0.000308   0.003536
     2  C   -0.029723   0.000156   0.002303   0.000037  -0.000029  -0.082849
     3  C    0.004382   0.004378   0.000674  -0.000014   0.000000   0.304363
     4  C    0.000156  -0.029727   0.002301   0.000040  -0.000030  -0.082797
     5  C    0.004694   0.354158  -0.043195   0.000228   0.000293   0.003535
     6  C   -0.045257  -0.045255   0.162146  -0.081365  -0.080540  -0.000023
     7  H    0.553762  -0.000153  -0.006525   0.000764   0.000790  -0.000046
     8  H   -0.000153   0.553792  -0.006525   0.000776   0.000778  -0.000046
     9  N   -0.006525  -0.006525   5.937685   0.310619   0.310689   0.000000
    10  O    0.000764   0.000776   0.310619   8.269088  -0.111043  -0.000000
    11  O    0.000790   0.000778   0.310689  -0.111043   8.266676  -0.000000
    12  O   -0.000046  -0.000046   0.000000  -0.000000  -0.000000   8.275006
    13  H    0.000003   0.000003   0.000000  -0.000000   0.000000   0.240649
    14  C    0.000010  -0.009439  -0.000099   0.000001   0.000001   0.001486
    15  H   -0.000000   0.000141   0.000001   0.000000  -0.000000   0.002908
    16  H   -0.000000   0.000162   0.000001  -0.000000   0.000000   0.002509
    17  H   -0.000000   0.005805  -0.000003   0.000000   0.000000   0.000457
    18  C   -0.009455   0.000010  -0.000099   0.000001   0.000001   0.001475
    19  H    0.000163  -0.000000   0.000001  -0.000000   0.000000   0.002486
    20  H    0.000140  -0.000000   0.000001   0.000000  -0.000000   0.002927
    21  H    0.005813  -0.000000  -0.000003   0.000000   0.000000   0.000457
              13         14         15         16         17         18
     1  C   -0.000040   0.000842  -0.000009   0.000021  -0.000003  -0.050402
     2  C   -0.001386   0.007629   0.000059  -0.000035  -0.000092   0.335280
     3  C   -0.022577  -0.052162  -0.004509  -0.003892   0.004595  -0.052208
     4  C   -0.001346   0.335329  -0.025329  -0.025647  -0.031040   0.007621
     5  C   -0.000040  -0.050439   0.000411   0.000916  -0.002541   0.000842
     6  C   -0.000000   0.006163  -0.000141  -0.000192   0.000185   0.006169
     7  H    0.000003   0.000010  -0.000000  -0.000000  -0.000000  -0.009455
     8  H    0.000003  -0.009439   0.000141   0.000162   0.005805   0.000010
     9  N    0.000000  -0.000099   0.000001   0.000001  -0.000003  -0.000099
    10  O   -0.000000   0.000001   0.000000  -0.000000   0.000000   0.000001
    11  O    0.000000   0.000001  -0.000000   0.000000   0.000000   0.000001
    12  O    0.240649   0.001486   0.002908   0.002509   0.000457   0.001475
    13  H    0.359326   0.000175  -0.000482   0.001507  -0.000030   0.000182
    14  C    0.000175   5.164543   0.373515   0.367426   0.365517  -0.000205
    15  H   -0.000482   0.373515   0.521715  -0.028472  -0.026262   0.000005
    16  H    0.001507   0.367426  -0.028472   0.544459  -0.027325  -0.000001
    17  H   -0.000030   0.365517  -0.026262  -0.027325   0.544488   0.000001
    18  C    0.000182  -0.000205   0.000005  -0.000001   0.000001   5.164705
    19  H    0.001510  -0.000001   0.000001  -0.000003  -0.000000   0.367401
    20  H   -0.000485   0.000005  -0.000003   0.000001  -0.000000   0.373528
    21  H   -0.000030   0.000001  -0.000000  -0.000000  -0.000000   0.365542
              19         20         21
     1  C    0.000912   0.000416  -0.002545
     2  C   -0.025628  -0.025367  -0.031051
     3  C   -0.003890  -0.004504   0.004595
     4  C   -0.000037   0.000060  -0.000092
     5  C    0.000021  -0.000009  -0.000003
     6  C   -0.000192  -0.000141   0.000187
     7  H    0.000163   0.000140   0.005813
     8  H   -0.000000  -0.000000  -0.000000
     9  N    0.000001   0.000001  -0.000003
    10  O   -0.000000   0.000000   0.000000
    11  O    0.000000  -0.000000   0.000000
    12  O    0.002486   0.002927   0.000457
    13  H    0.001510  -0.000485  -0.000030
    14  C   -0.000001   0.000005   0.000001
    15  H    0.000001  -0.000003  -0.000000
    16  H   -0.000003   0.000001  -0.000000
    17  H   -0.000000  -0.000000  -0.000000
    18  C    0.367401   0.373528   0.365542
    19  H    0.544488  -0.028472  -0.027324
    20  H   -0.028472   0.521701  -0.026252
    21  H   -0.027324  -0.026252   0.544424
 Mulliken charges:
               1
     1  C   -0.206182
     2  C    0.124677
     3  C    0.206552
     4  C    0.124592
     5  C   -0.206233
     6  C    0.259108
     7  H    0.166305
     8  H    0.166291
     9  N    0.373229
    10  O   -0.389335
    11  O   -0.387893
    12  O   -0.676037
    13  H    0.423062
    14  C   -0.510296
    15  H    0.186450
    16  H    0.168564
    17  H    0.166246
    18  C   -0.510395
    19  H    0.168563
    20  H    0.186452
    21  H    0.166280
 Sum of Mulliken charges =  -0.00000
 Mulliken charges with hydrogens summed into heavy atoms:
               1
     1  C   -0.039877
     2  C    0.124677
     3  C    0.206552
     4  C    0.124592
     5  C   -0.039942
     6  C    0.259108
     9  N    0.373229
    10  O   -0.389335
    11  O   -0.387893
    12  O   -0.252975
    14  C    0.010964
    18  C    0.010901
 Electronic spatial extent (au):  <R**2>=           2259.9820
 Charge=             -0.0000 electrons
 Dipole moment (field-independent basis, Debye):
    X=              4.5709    Y=              0.0018    Z=              1.5026  Tot=              4.8116
 Quadrupole moment (field-independent basis, Debye-Ang):
   XX=            -80.1465   YY=            -59.0460   ZZ=            -71.7791
   XY=              0.0019   XZ=              5.8552   YZ=              0.0159
 Traceless Quadrupole moment (field-independent basis, Debye-Ang):
   XX=             -9.8226   YY=             11.2778   ZZ=             -1.4552
   XY=              0.0019   XZ=              5.8552   YZ=              0.0159
 Octapole moment (field-independent basis, Debye-Ang**2):
  XXX=             51.4011  YYY=              0.0041  ZZZ=              2.0406  XYY=             -5.4517
  XXY=              0.0137  XXZ=             20.9123  XZZ=             14.3421  YZZ=              0.0023
  YYZ=             -0.5193  XYZ=             -0.0299
 Hexadecapole moment (field-independent basis, Debye-Ang**3):
 XXXX=          -1915.5817 YYYY=           -840.1419 ZZZZ=           -153.1160 XXXY=              0.0392
 XXXZ=             77.0576 YYYX=             -0.0031 YYYZ=             -0.0132 ZZZX=              7.5552
 ZZZY=              0.0039 XXYY=           -415.2410 XXZZ=           -325.3069 YYZZ=           -173.5797
 XXYZ=              0.1230 YYXZ=             -0.6328 ZZXY=              0.0010
 N-N= 6.849839898848D+02 E-N=-2.747414438444D+03  KE= 5.855011089650D+02
 D1PCM: PCM CHGder 1st derivatives, ID1Alg=3 FixD1E=F DoIter=F DoCFld=F I1PDM=0.
 Calling FoFJK, ICntrl=      2127 FMM=F ISym2X=0 I1Cent= 0 IOpClX= 0 NMat=1 NMatS=1 NMatT=0.
 ***** Axes restored to original set *****
 -------------------------------------------------------------------
 Center     Atomic                   Forces (Hartrees/Bohr)
 Number     Number              X              Y              Z
 -------------------------------------------------------------------
      1        6          -0.013208763   -0.005295925    0.000828815
      2        6           0.011444224   -0.023283353    0.001450594
      3        6           0.017067463    0.000366565   -0.007819970
      4        6           0.011841659    0.022849237    0.001342209
      5        6          -0.013436001    0.005328001    0.000823670
      6        6           0.019251147    0.000099844   -0.000246126
      7        1           0.004798374    0.007504289    0.000014939
      8        1           0.004858514   -0.007571599    0.000023196
      9        7           0.025533067   -0.000018841    0.000267691
     10        8          -0.014324910    0.000122751   -0.050288651
     11        8          -0.014263366   -0.000109267    0.049932455
     12        8          -0.030430664    0.000029046    0.017034181
     13        1           0.001097364   -0.000028223   -0.012048001
     14        6          -0.020300413   -0.030791199    0.000553201
     15        1           0.012232161    0.002584988    0.011990258
     16        1           0.011796698    0.003979772   -0.013242182
     17        1          -0.008882253    0.013896246    0.000063392
     18        6          -0.020215897    0.030817711    0.000500419
     19        1           0.011783917   -0.004028596   -0.013255883
     20        1           0.012244551   -0.002567026    0.011978083
     21        1          -0.008886870   -0.013884422    0.000097709
 -------------------------------------------------------------------
 Cartesian Forces:  Max     0.050288651 RMS     0.015225939

 GradGradGradGradGradGradGradGradGradGradGradGradGradGradGradGradGradGrad
 Berny optimization.
 FormGI is forming the generalized inverse of G from B-inverse, IUseBI=4.
 Internal  Forces:  Max     0.051048253 RMS     0.009918090
 Search for a local minimum.
 Step number   1 out of a maximum of  107
 All quantities printed in internal units (Hartrees-Bohrs-Radians)
 Mixed Optimization -- RFO/linear search
 Second derivative matrix not updated -- first step.
 ITU=  0
     Eigenvalues ---    0.00237   0.00237   0.00766   0.00766   0.01295
     Eigenvalues ---    0.01358   0.01417   0.01730   0.02002   0.02153
     Eigenvalues ---    0.02154   0.02155   0.02156   0.02156   0.07243
     Eigenvalues ---    0.07243   0.07243   0.07243   0.16000   0.16000
     Eigenvalues ---    0.16000   0.16000   0.16000   0.16000   0.16000
     Eigenvalues ---    0.16000   0.16000   0.23479   0.23493   0.25000
     Eigenvalues ---    0.25000   0.25000   0.25000   0.25000   0.25000
     Eigenvalues ---    0.25000   0.28519   0.28519   0.33709   0.33725
     Eigenvalues ---    0.35740   0.37230   0.37230   0.37230   0.37230
     Eigenvalues ---    0.37230   0.37230   0.40989   0.42403   0.42564
     Eigenvalues ---    0.46412   0.46453   0.46466   0.46497   0.55473
     Eigenvalues ---    1.05155   1.05157
 RFO step:  Lambda=-1.77931089D-02 EMin= 2.36824226D-03
 Linear search not attempted -- first point.
 Iteration  1 RMS(Cart)=  0.02874275 RMS(Int)=  0.00040053
 Iteration  2 RMS(Cart)=  0.00043303 RMS(Int)=  0.00013916
 Iteration  3 RMS(Cart)=  0.00000016 RMS(Int)=  0.00013916
 Variable       Old X    -DE/DX   Delta X   Delta X   Delta X     New X
                                 (Linear)    (Quad)   (Total)
    R1        2.63647   0.00034   0.00000   0.00071   0.00071   2.63718
    R2        2.63584  -0.00296   0.00000  -0.00674  -0.00678   2.62907
    R3        2.07796  -0.00890   0.00000  -0.02506  -0.02506   2.05290
    R4        2.63562   0.00521   0.00000   0.01140   0.01144   2.64706
    R5        2.91018  -0.01149   0.00000  -0.03793  -0.03793   2.87225
    R6        2.63697   0.00479   0.00000   0.01055   0.01059   2.64756
    R7        2.70231  -0.02933   0.00000  -0.06858  -0.06858   2.63373
    R8        2.63584   0.00045   0.00000   0.00093   0.00093   2.63677
    R9        2.91018  -0.01152   0.00000  -0.03803  -0.03803   2.87215
   R10        2.63643  -0.00307   0.00000  -0.00698  -0.00702   2.62941
   R11        2.07825  -0.00899   0.00000  -0.02532  -0.02532   2.05292
   R12        2.77790   0.00306   0.00000   0.00814   0.00814   2.78604
   R13        2.26643   0.05105   0.00000   0.04774   0.04774   2.31416
   R14        2.26642   0.05071   0.00000   0.04742   0.04742   2.31384
   R15        1.81414   0.01173   0.00000   0.02048   0.02048   1.83462
   R16        2.02201   0.01701   0.00000   0.04361   0.04361   2.06562
   R17        2.02201   0.01778   0.00000   0.04559   0.04559   2.06759
   R18        2.02201   0.01633   0.00000   0.04186   0.04186   2.06387
   R19        2.02201   0.01779   0.00000   0.04561   0.04561   2.06762
   R20        2.02201   0.01701   0.00000   0.04361   0.04361   2.06562
   R21        2.02201   0.01632   0.00000   0.04184   0.04184   2.06385
    A1        2.09437  -0.00263   0.00000  -0.01178  -0.01177   2.08260
    A2        2.09435   0.00090   0.00000   0.00353   0.00352   2.09787
    A3        2.09447   0.00173   0.00000   0.00825   0.00824   2.10271
    A4        2.09455  -0.00780   0.00000  -0.02756  -0.02746   2.06708
    A5        2.09406   0.00481   0.00000   0.01717   0.01712   2.11118
    A6        2.09458   0.00299   0.00000   0.01038   0.01034   2.10492
    A7        2.09429   0.01033   0.00000   0.04124   0.04101   2.13531
    A8        2.09462  -0.00517   0.00000  -0.02063  -0.02102   2.07360
    A9        2.09427  -0.00516   0.00000  -0.02059  -0.02098   2.07329
   A10        2.09429  -0.00774   0.00000  -0.02737  -0.02728   2.06701
   A11        2.09407   0.00305   0.00000   0.01063   0.01059   2.10465
   A12        2.09483   0.00469   0.00000   0.01674   0.01670   2.11153
   A13        2.09448  -0.00262   0.00000  -0.01181  -0.01179   2.08268
   A14        2.09459   0.00088   0.00000   0.00345   0.00344   2.09804
   A15        2.09411   0.00175   0.00000   0.00835   0.00835   2.10246
   A16        2.09440   0.01046   0.00000   0.03729   0.03726   2.13166
   A17        2.09453  -0.00523   0.00000  -0.01866  -0.01865   2.07589
   A18        2.09426  -0.00523   0.00000  -0.01863  -0.01862   2.07564
   A19        2.06635  -0.00860   0.00000  -0.03213  -0.03213   2.03422
   A20        2.06634  -0.00840   0.00000  -0.03137  -0.03137   2.03498
   A21        2.15049   0.01700   0.00000   0.06350   0.06350   2.21399
   A22        1.91114  -0.00544   0.00000  -0.03058  -0.03058   1.88056
   A23        1.91063   0.00273   0.00000   0.01472   0.01459   1.92523
   A24        1.91063   0.00388   0.00000   0.02066   0.02052   1.93116
   A25        1.91063   0.00224   0.00000   0.01440   0.01422   1.92486
   A26        1.91063  -0.00413   0.00000  -0.02682  -0.02691   1.88373
   A27        1.91063  -0.00194   0.00000  -0.00858  -0.00874   1.90190
   A28        1.91063  -0.00278   0.00000  -0.01437  -0.01455   1.89609
   A29        1.91063   0.00390   0.00000   0.02076   0.02062   1.93126
   A30        1.91063   0.00272   0.00000   0.01470   0.01457   1.92520
   A31        1.91063   0.00224   0.00000   0.01438   0.01421   1.92484
   A32        1.91063  -0.00413   0.00000  -0.02683  -0.02692   1.88371
   A33        1.91063  -0.00278   0.00000  -0.01442  -0.01460   1.89604
   A34        1.91063  -0.00194   0.00000  -0.00858  -0.00874   1.90190
    D1        0.00056  -0.00006   0.00000  -0.00179  -0.00181  -0.00124
    D2        3.14078  -0.00010   0.00000  -0.00298  -0.00298   3.13780
    D3       -3.14112  -0.00009   0.00000  -0.00224  -0.00225   3.13982
    D4       -0.00091  -0.00012   0.00000  -0.00342  -0.00342  -0.00433
    D5        0.00026  -0.00018   0.00000  -0.00484  -0.00485  -0.00459
    D6        3.14140  -0.00011   0.00000  -0.00271  -0.00270   3.13871
    D7       -3.14124  -0.00016   0.00000  -0.00439  -0.00441   3.13754
    D8       -0.00010  -0.00009   0.00000  -0.00226  -0.00225  -0.00235
    D9       -0.00099   0.00029   0.00000   0.00810   0.00827   0.00728
   D10        3.14093  -0.00153   0.00000  -0.04021  -0.04036   3.10056
   D11       -3.14120   0.00033   0.00000   0.00928   0.00943  -3.13177
   D12        0.00072  -0.00150   0.00000  -0.03903  -0.03920  -0.03849
   D13        2.05997   0.00043   0.00000   0.00354   0.00358   2.06355
   D14       -2.12882  -0.00057   0.00000  -0.00762  -0.00764  -2.13645
   D15       -0.03442   0.00008   0.00000  -0.00032  -0.00033  -0.03475
   D16       -1.08300   0.00039   0.00000   0.00232   0.00236  -1.08064
   D17        1.01140  -0.00062   0.00000  -0.00883  -0.00886   1.00253
   D18        3.10579   0.00004   0.00000  -0.00154  -0.00155   3.10424
   D19        0.00060  -0.00028   0.00000  -0.00780  -0.00797  -0.00737
   D20       -3.14153  -0.00033   0.00000  -0.00944  -0.00959   3.13207
   D21       -3.14132   0.00154   0.00000   0.04050   0.04066  -3.10067
   D22       -0.00026   0.00149   0.00000   0.03886   0.03904   0.03878
   D23        1.56948   0.00091   0.00000   0.02392   0.02321   1.59269
   D24       -1.57179  -0.00092   0.00000  -0.02440  -0.02369  -1.59548
   D25        0.00023   0.00004   0.00000   0.00118   0.00120   0.00143
   D26       -3.14158   0.00008   0.00000   0.00202   0.00203  -3.13956
   D27       -3.14083   0.00009   0.00000   0.00282   0.00283  -3.13800
   D28        0.00054   0.00013   0.00000   0.00366   0.00366   0.00420
   D29       -1.01329   0.00063   0.00000   0.00908   0.00912  -1.00417
   D30        1.08110  -0.00038   0.00000  -0.00210  -0.00213   1.07897
   D31       -3.10769  -0.00003   0.00000   0.00177   0.00179  -3.10590
   D32        2.12777   0.00057   0.00000   0.00743   0.00745   2.13521
   D33       -2.06102  -0.00044   0.00000  -0.00376  -0.00381  -2.06483
   D34        0.03337  -0.00009   0.00000   0.00011   0.00011   0.03348
   D35       -0.00066   0.00019   0.00000   0.00513   0.00515   0.00450
   D36        3.14138   0.00012   0.00000   0.00301   0.00300  -3.13880
   D37        3.14116   0.00015   0.00000   0.00430   0.00432  -3.13771
   D38        0.00001   0.00009   0.00000   0.00217   0.00217   0.00218
   D39       -1.57293  -0.00007   0.00000  -0.00249  -0.00247  -1.57540
   D40        1.56866  -0.00006   0.00000  -0.00217  -0.00215   1.56651
   D41        1.56821  -0.00000   0.00000  -0.00034  -0.00037   1.56785
   D42       -1.57338   0.00001   0.00000  -0.00003  -0.00005  -1.57343
         Item               Value     Threshold  Converged?
 Maximum Force            0.051048     0.000450     NO 
 RMS     Force            0.009918     0.000300     NO 
 Maximum Displacement     0.122691     0.001800     NO 
 RMS     Displacement     0.028871     0.001200     NO 
 Predicted change in Energy=-9.358654D-03
 GradGradGradGradGradGradGradGradGradGradGradGradGradGradGradGradGradGrad

                          Input orientation:                          
 ---------------------------------------------------------------------
 Center     Atomic      Atomic             Coordinates (Angstroms)
 Number     Number       Type             X           Y           Z
 ---------------------------------------------------------------------
      1          6           0       -0.815005   -0.994924   -0.001817
      2          6           0        0.580489   -1.004583   -0.006878
      3          6           0        1.255968    0.222532   -0.014377
      4          6           0        0.580542    1.449988   -0.008323
      5          6           0       -0.814732    1.440435   -0.003367
      6          6           0       -1.487966    0.222728   -0.002843
      7          1           0       -1.367918   -1.930029    0.002369
      8          1           0       -1.367744    2.375502   -0.000531
      9          7           0       -2.962273    0.223027   -0.001189
     10          8           0       -3.510920    0.226578   -1.096007
     11          8           0       -3.509210    0.220047    1.094294
     12          8           0        2.648949    0.222668    0.030624
     13          1           0        2.974590    0.220857   -0.883969
     14          6           0        1.353995    2.758336   -0.004389
     15          1           0        2.022202    2.801409    0.859593
     16          1           0        1.965013    2.848013   -0.907562
     17          1           0        0.665474    3.605121    0.036717
     18          6           0        1.353430   -2.313291   -0.001015
     19          1           0        1.963386   -2.405284   -0.904688
     20          1           0        2.022608   -2.354759    0.862293
     21          1           0        0.664598   -3.159677    0.042733
 ---------------------------------------------------------------------
                    Distance matrix (angstroms):
                    1          2          3          4          5
     1  C    0.000000
     2  C    1.395536   0.000000
     3  C    2.402350   1.400764   0.000000
     4  C    2.815171   2.454571   1.401029   0.000000
     5  C    2.435360   2.815097   2.402334   1.395316   0.000000
     6  C    1.391241   2.405164   2.743958   2.405187   1.391422
     7  H    1.086348   2.157041   3.393903   3.901426   3.415564
     8  H    3.415449   3.901362   3.394015   2.156956   1.086361
     9  N    2.468637   3.749430   4.218262   3.749270   2.468607
    10  O    3.155515   4.409261   4.888063   4.406796   3.152259
    11  O    3.152199   4.408848   4.892452   4.410736   3.155063
    12  O    3.671861   2.405427   1.393708   2.405439   3.671676
    13  H    4.076438   2.828907   1.926098   2.830014   4.076984
    14  C    4.334919   3.841598   2.537718   1.519875   2.537763
    15  H    4.817044   4.161116   2.828700   2.158240   3.262690
    16  H    4.828772   4.191734   2.862460   2.163300   3.244353
    17  H    4.832568   4.610694   3.434123   2.157277   2.622686
    18  C    2.537755   1.519931   2.537731   3.841832   4.334904
    19  H    3.244033   2.163430   2.863304   4.192713   4.829066
    20  H    3.263109   2.158272   2.828200   4.160964   4.816987
    21  H    2.622473   2.157305   3.433995   4.610713   4.832347
                    6          7          8          9         10
     6  C    0.000000
     7  H    2.156108   0.000000
     8  H    2.156130   4.305532   0.000000
     9  N    1.474309   2.679110   2.678745   0.000000
    10  O    2.299427   3.232621   3.226630   1.224603   0.000000
    11  O    2.299815   3.224944   3.229629   1.224431   2.190312
    12  O    4.137050   4.557425   4.557356   5.611313   6.262052
    13  H    4.548713   4.926386   4.927355   6.002137   6.488978
    14  C    3.808681   5.421220   2.748534   5.005794   5.591853
    15  H    4.440121   5.883388   3.523201   5.677499   6.408554
    16  H    4.430994   5.896278   3.486150   5.655990   6.073984
    17  H    4.009920   5.896927   2.376411   4.959894   5.489980
    18  C    3.808533   2.748206   5.421215   5.005817   5.595698
    19  H    4.430756   3.485141   5.896596   5.655656   6.077115
    20  H    4.440273   3.523567   5.883394   5.677994   6.412345
    21  H    4.009522   2.375875   5.896651   4.959719   5.495307
                   11         12         13         14         15
    11  O    0.000000
    12  O    6.249346   0.000000
    13  H    6.778879   0.970838   0.000000
    14  C    5.594710   2.847410   3.136684   0.000000
    15  H    6.108604   2.780271   3.256731   1.093079   0.000000
    16  H    6.393806   2.870609   2.814560   1.094124   1.768694
    17  H    5.477699   3.921122   4.199157   1.092152   1.778705
    18  C    5.591313   2.847887   3.135231   5.071628   5.229537
    19  H    6.390431   2.872444   2.814175   5.276824   5.497799
    20  H    6.106100   2.779768   3.254152   5.228951   5.156169
    21  H    5.472567   3.921486   4.197958   5.958218   6.168054
                   16         17         18         19         20
    16  H    0.000000
    17  H    1.775859   0.000000
    18  C    5.275881   5.958382   0.000000
    19  H    5.253298   6.220594   1.094136   0.000000
    20  H    5.495866   6.167946   1.093078   1.768695   0.000000
    21  H    6.219846   6.764801   1.092141   1.775828   1.778696
                   21
    21  H    0.000000
 Stoichiometry    C8H9NO3
 Framework group  C1[X(C8H9NO3)]
 Deg. of freedom    57
 Full point group                 C1      NOp   1
 Largest Abelian subgroup         C1      NOp   1
 Largest concise Abelian subgroup C1      NOp   1
                         Standard orientation:                         
 ---------------------------------------------------------------------
 Center     Atomic      Atomic             Coordinates (Angstroms)
 Number     Number       Type             X           Y           Z
 ---------------------------------------------------------------------
      1          6           0       -0.427102    1.217770   -0.004517
      2          6           0        0.968396    1.227214   -0.008764
      3          6           0        1.643716   -0.000011   -0.007146
      4          6           0        0.968072   -1.227357   -0.010061
      5          6           0       -0.427204   -1.217590   -0.005688
      6          6           0       -1.100233    0.000219   -0.000357
      7          1           0       -0.979884    2.152962   -0.003966
      8          1           0       -0.980369   -2.152569   -0.005877
      9          7           0       -2.574519    0.000143    0.007834
     10          8           0       -3.115843   -0.004550    1.106287
     11          8           0       -3.128759    0.004430   -1.083969
     12          8           0        3.036366   -0.000305   -0.061448
     13          1           0        3.368107    0.000434    0.850951
     14          6           0        1.741274   -2.535816   -0.020621
     15          1           0        2.403691   -2.578023   -0.889094
     16          1           0        2.358296   -2.626595    0.878350
     17          1           0        1.052361   -3.382452   -0.058074
     18          6           0        1.741487    2.535812   -0.018326
     19          1           0        2.357478    2.626702    0.881356
     20          1           0        2.404891    2.578144   -0.886036
     21          1           0        1.052511    3.382349   -0.056528
 ---------------------------------------------------------------------
 Rotational constants (GHZ):           1.5403929           0.6491443           0.4945068
 Standard basis: 6-31G(d) (6D, 7F)
 There are   198 symmetry adapted cartesian basis functions of A   symmetry.
 There are   198 symmetry adapted basis functions of A   symmetry.
   198 basis functions,   372 primitive gaussians,   198 cartesian basis functions
    44 alpha electrons       44 beta electrons
       nuclear repulsion energy       685.6436728159 Hartrees.
 NAtoms=   21 NActive=   21 NUniq=   21 SFac= 1.00D+00 NAtFMM=   60 NAOKFM=F Big=F
 Integral buffers will be    131072 words long.
 Raffenetti 2 integral format.
 Two-electron integral symmetry is turned on.
 ------------------------------------------------------------------------------
 Polarizable Continuum Model (PCM)
 =================================
 Model                : PCM.
 Atomic radii         : SMD-Coulomb.
 Polarization charges : Total charges.
 Charge compensation  : None.
 Solution method      : On-the-fly selection.
 Cavity type          : VdW (van der Waals Surface) (Alpha=1.000).
 Cavity algorithm     : GePol (No added spheres)
                        Default sphere list used, NSphG=   21.
                        Lebedev-Laikov grids with approx.  5.0 points / Ang**2.
                        Smoothing algorithm: York/Karplus (Gamma=1.0000).
                        Polarization charges: spherical gaussians, with
                                              point-specific exponents (IZeta= 3).
                        Self-potential: point-specific (ISelfS= 7).
                        Self-field    : sphere-specific E.n sum rule (ISelfD= 2).
 1st derivatives      : Analytical E(r).r(x)/FMM algorithm (CHGder, D1EAlg=3).
                        Cavity 1st derivative terms included.
 Solvent              : Toluene, Eps=   2.374100 Eps(inf)=   2.238315
 ------------------------------------------------------------------------------
 ------------------------------------------------------------------------------
 Atomic radii for non-electrostatic terms: SMD-CDS.
 ------------------------------------------------------------------------------
 Nuclear repulsion after PCM non-electrostatic terms =      685.6367622322 Hartrees.
 One-electron integrals computed using PRISM.
 NBasis=   198 RedAO= T EigKep=  3.32D-04  NBF=   198
 NBsUse=   198 1.00D-06 EigRej= -1.00D+00 NBFU=   198
 Initial guess from the checkpoint file:  "/home/rong/gdata/050522/a5.chk"
 B after Tr=    -0.000000    0.000000   -0.000000
         Rot=    1.000000   -0.000162    0.000166    0.000040 Ang=  -0.03 deg.
 ExpMin= 1.61D-01 ExpMax= 5.48D+03 ExpMxC= 8.25D+02 IAcc=3 IRadAn=         5 AccDes= 0.00D+00
 Harris functional with IExCor=  402 and IRadAn=       5 diagonalized for initial guess.
 HarFok:  IExCor=  402 AccDes= 0.00D+00 IRadAn=         5 IDoV= 1 UseB2=F ITyADJ=14
 ICtDFT=  3500011 ScaDFX=  1.000000  1.000000  1.000000  1.000000
 FoFCou: FMM=F IPFlag=           0 FMFlag=      100000 FMFlg1=           0
         NFxFlg=           0 DoJE=T BraDBF=F KetDBF=T FulRan=T
         wScrn=  0.000000 ICntrl=       500 IOpCl=  0 I1Cent=   200000004 NGrid=           0
         NMat0=    1 NMatS0=      1 NMatT0=    0 NMatD0=    1 NMtDS0=    0 NMtDT0=    0
 Petite list used in FoFCou.
 Requested convergence on RMS density matrix=1.00D-08 within 128 cycles.
 Requested convergence on MAX density matrix=1.00D-06.
 Requested convergence on             energy=1.00D-06.
 No special actions if energy rises.
 Inv3:  Mode=1 IEnd=    10648368.
 Iteration    1 A*A^-1 deviation from unit magnitude is 3.33D-15 for   1854.
 Iteration    1 A*A^-1 deviation from orthogonality  is 1.42D-15 for   1884   1633.
 Iteration    1 A^-1*A deviation from unit magnitude is 2.89D-15 for    106.
 Iteration    1 A^-1*A deviation from orthogonality  is 1.28D-15 for   1884   1633.
 Error on total polarization charges =  0.01511
 SCF Done:  E(RB3LYP) =  -590.598519008     A.U. after   12 cycles
            NFock= 12  Conv=0.25D-08     -V/T= 2.0091
 SMD-CDS (non-electrostatic) energy       (kcal/mol) =      -4.34
 (included in total energy above)
 D1PCM: PCM CHGder 1st derivatives, ID1Alg=3 FixD1E=F DoIter=F DoCFld=F I1PDM=0.
 Calling FoFJK, ICntrl=      2127 FMM=F ISym2X=0 I1Cent= 0 IOpClX= 0 NMat=1 NMatS=1 NMatT=0.
 ***** Axes restored to original set *****
 -------------------------------------------------------------------
 Center     Atomic                   Forces (Hartrees/Bohr)
 Number     Number              X              Y              Z
 -------------------------------------------------------------------
      1        6          -0.004568435    0.000699510   -0.000061553
      2        6           0.003305874   -0.007229485    0.000587929
      3        6           0.005364374    0.000120902    0.000227477
      4        6           0.003480851    0.007061053    0.000562627
      5        6          -0.004724631   -0.000739830   -0.000115785
      6        6           0.006313065    0.000056112   -0.000019099
      7        1          -0.000314362    0.000466539    0.000045498
      8        1          -0.000302823   -0.000464905    0.000042354
      9        7           0.014031682    0.000027798    0.000250361
     10        8          -0.007893085    0.000053508   -0.002470015
     11        8          -0.007989866   -0.000073143    0.002294431
     12        8          -0.005709110    0.000002530   -0.000055238
     13        1           0.002745970   -0.000014392   -0.000920533
     14        6          -0.005795419   -0.009213178    0.000381896
     15        1           0.001761484    0.001262986    0.000164840
     16        1           0.001760345    0.001580342   -0.000546757
     17        1           0.000396304    0.001463055   -0.000171914
     18        6          -0.005770232    0.009247285    0.000360626
     19        1           0.001757116   -0.001580964   -0.000549590
     20        1           0.001758211   -0.001259753    0.000165185
     21        1           0.000392685   -0.001465969   -0.000172740
 -------------------------------------------------------------------
 Cartesian Forces:  Max     0.014031682 RMS     0.003733768

 GradGradGradGradGradGradGradGradGradGradGradGradGradGradGradGradGradGrad
 Berny optimization.
 Using GEDIIS/GDIIS optimizer.
 FormGI is forming the generalized inverse of G from B-inverse, IUseBI=4.
 Internal  Forces:  Max     0.009312466 RMS     0.001961757
 Search for a local minimum.
 Step number   2 out of a maximum of  107
 All quantities printed in internal units (Hartrees-Bohrs-Radians)
 Mixed Optimization -- RFO/linear search
 Update second derivatives using D2CorX and points    1    2
 DE= -9.36D-03 DEPred=-9.36D-03 R= 1.00D+00
 TightC=F SS=  1.41D+00  RLast= 2.28D-01 DXNew= 5.0454D-01 6.8405D-01
 Trust test= 1.00D+00 RLast= 2.28D-01 DXMaxT set to 5.05D-01
 ITU=  1  0
 Use linear search instead of GDIIS.
     Eigenvalues ---    0.00237   0.00237   0.00766   0.00766   0.01295
     Eigenvalues ---    0.01339   0.01397   0.01748   0.02028   0.02153
     Eigenvalues ---    0.02154   0.02155   0.02156   0.02159   0.07035
     Eigenvalues ---    0.07036   0.07060   0.07067   0.15279   0.16000
     Eigenvalues ---    0.16000   0.16000   0.16000   0.16000   0.16000
     Eigenvalues ---    0.16000   0.16224   0.23014   0.23468   0.24220
     Eigenvalues ---    0.24973   0.25000   0.25000   0.25000   0.25000
     Eigenvalues ---    0.27290   0.28367   0.28519   0.33717   0.33897
     Eigenvalues ---    0.35625   0.37201   0.37230   0.37230   0.37230
     Eigenvalues ---    0.37230   0.38026   0.40579   0.42556   0.42593
     Eigenvalues ---    0.46409   0.46459   0.46489   0.46733   0.55345
     Eigenvalues ---    1.00813   1.05156
 RFO step:  Lambda=-1.42177602D-03 EMin= 2.36824256D-03
 Quartic linear search produced a step of  0.07826.
 Iteration  1 RMS(Cart)=  0.01335082 RMS(Int)=  0.00019269
 Iteration  2 RMS(Cart)=  0.00018769 RMS(Int)=  0.00003847
 Iteration  3 RMS(Cart)=  0.00000003 RMS(Int)=  0.00003847
 Variable       Old X    -DE/DX   Delta X   Delta X   Delta X     New X
                                 (Linear)    (Quad)   (Total)
    R1        2.63718   0.00268   0.00006   0.00619   0.00624   2.64342
    R2        2.62907  -0.00182  -0.00053  -0.00462  -0.00516   2.62391
    R3        2.05290  -0.00024  -0.00196  -0.00075  -0.00271   2.05019
    R4        2.64706   0.00233   0.00090   0.00579   0.00669   2.65375
    R5        2.87225  -0.00520  -0.00297  -0.01953  -0.02249   2.84976
    R6        2.64756   0.00220   0.00083   0.00552   0.00636   2.65392
    R7        2.63373  -0.00300  -0.00537  -0.00779  -0.01315   2.62057
    R8        2.63677   0.00278   0.00007   0.00641   0.00648   2.64325
    R9        2.87215  -0.00518  -0.00298  -0.01944  -0.02242   2.84973
   R10        2.62941  -0.00189  -0.00055  -0.00480  -0.00536   2.62405
   R11        2.05292  -0.00025  -0.00198  -0.00076  -0.00274   2.05018
   R12        2.78604   0.00185   0.00064   0.00555   0.00619   2.79223
   R13        2.31416   0.00574   0.00374   0.00583   0.00956   2.32373
   R14        2.31384   0.00563   0.00371   0.00572   0.00943   2.32327
   R15        1.83462   0.00179   0.00160   0.00346   0.00506   1.83968
   R16        2.06562   0.00125   0.00341   0.00357   0.00699   2.07261
   R17        2.06759   0.00157   0.00357   0.00448   0.00805   2.07564
   R18        2.06387   0.00088   0.00328   0.00249   0.00577   2.06964
   R19        2.06762   0.00157   0.00357   0.00448   0.00805   2.07567
   R20        2.06562   0.00125   0.00341   0.00358   0.00699   2.07261
   R21        2.06385   0.00088   0.00327   0.00250   0.00578   2.06963
    A1        2.08260  -0.00052  -0.00092  -0.00322  -0.00413   2.07847
    A2        2.09787   0.00078   0.00028   0.00509   0.00536   2.10323
    A3        2.10271  -0.00026   0.00065  -0.00187  -0.00123   2.10148
    A4        2.06708  -0.00066  -0.00215  -0.00182  -0.00394   2.06314
    A5        2.11118   0.00142   0.00134   0.00558   0.00691   2.11809
    A6        2.10492  -0.00076   0.00081  -0.00376  -0.00296   2.10195
    A7        2.13531  -0.00015   0.00321   0.00079   0.00391   2.13922
    A8        2.07360   0.00005  -0.00165  -0.00090  -0.00267   2.07092
    A9        2.07329   0.00008  -0.00164  -0.00076  -0.00254   2.07076
   A10        2.06701  -0.00064  -0.00214  -0.00177  -0.00388   2.06313
   A11        2.10465  -0.00072   0.00083  -0.00359  -0.00278   2.10187
   A12        2.11153   0.00137   0.00131   0.00537   0.00666   2.11819
   A13        2.08268  -0.00053  -0.00092  -0.00327  -0.00419   2.07850
   A14        2.09804   0.00078   0.00027   0.00505   0.00531   2.10335
   A15        2.10246  -0.00025   0.00065  -0.00177  -0.00113   2.10134
   A16        2.13166   0.00249   0.00292   0.00926   0.01217   2.14383
   A17        2.07589  -0.00125  -0.00146  -0.00464  -0.00610   2.06979
   A18        2.07564  -0.00124  -0.00146  -0.00461  -0.00607   2.06957
   A19        2.03422   0.00447  -0.00251   0.01920   0.01668   2.05091
   A20        2.03498   0.00484  -0.00245   0.02078   0.01832   2.05330
   A21        2.21399  -0.00931   0.00497  -0.03997  -0.03501   2.17898
   A22        1.88056   0.00417  -0.00239   0.02788   0.02548   1.90604
   A23        1.92523   0.00170   0.00114   0.01119   0.01226   1.93748
   A24        1.93116   0.00188   0.00161   0.01165   0.01319   1.94434
   A25        1.92486   0.00113   0.00111   0.00849   0.00951   1.93437
   A26        1.88373  -0.00213  -0.00211  -0.01611  -0.01827   1.86545
   A27        1.90190  -0.00120  -0.00068  -0.00635  -0.00712   1.89477
   A28        1.89609  -0.00152  -0.00114  -0.00994  -0.01116   1.88493
   A29        1.93126   0.00188   0.00161   0.01167   0.01321   1.94447
   A30        1.92520   0.00169   0.00114   0.01112   0.01219   1.93739
   A31        1.92484   0.00113   0.00111   0.00849   0.00951   1.93435
   A32        1.88371  -0.00212  -0.00211  -0.01608  -0.01824   1.86547
   A33        1.89604  -0.00152  -0.00114  -0.00992  -0.01114   1.88489
   A34        1.90190  -0.00120  -0.00068  -0.00634  -0.00712   1.89478
    D1       -0.00124  -0.00006  -0.00014  -0.00332  -0.00346  -0.00470
    D2        3.13780  -0.00003  -0.00023  -0.00058  -0.00081   3.13699
    D3        3.13982  -0.00001  -0.00018  -0.00106  -0.00123   3.13859
    D4       -0.00433   0.00002  -0.00027   0.00168   0.00142  -0.00291
    D5       -0.00459   0.00001  -0.00038   0.00065   0.00027  -0.00432
    D6        3.13871   0.00001  -0.00021   0.00026   0.00005   3.13876
    D7        3.13754  -0.00004  -0.00034  -0.00162  -0.00195   3.13558
    D8       -0.00235  -0.00004  -0.00018  -0.00201  -0.00218  -0.00453
    D9        0.00728   0.00010   0.00065   0.00585   0.00652   0.01380
   D10        3.10056  -0.00033  -0.00316  -0.01559  -0.01877   3.08179
   D11       -3.13177   0.00006   0.00074   0.00311   0.00388  -3.12789
   D12       -0.03849  -0.00037  -0.00307  -0.01833  -0.02141  -0.05990
   D13        2.06355   0.00009   0.00028  -0.00822  -0.00793   2.05562
   D14       -2.13645  -0.00028  -0.00060  -0.01367  -0.01429  -2.15074
   D15       -0.03475   0.00004  -0.00003  -0.00891  -0.00893  -0.04368
   D16       -1.08064   0.00013   0.00018  -0.00542  -0.00523  -1.08587
   D17        1.00253  -0.00024  -0.00069  -0.01087  -0.01158   0.99095
   D18        3.10424   0.00008  -0.00012  -0.00611  -0.00623   3.09801
   D19       -0.00737  -0.00009  -0.00062  -0.00552  -0.00616  -0.01354
   D20        3.13207  -0.00006  -0.00075  -0.00299  -0.00377   3.12829
   D21       -3.10067   0.00033   0.00318   0.01593   0.01914  -3.08153
   D22        0.03878   0.00037   0.00306   0.01845   0.02152   0.06030
   D23        1.59269   0.00020   0.00182   0.00945   0.01117   1.60386
   D24       -1.59548  -0.00022  -0.00185  -0.01118  -0.01294  -1.60841
   D25        0.00143   0.00005   0.00009   0.00266   0.00275   0.00417
   D26       -3.13956   0.00001   0.00016   0.00099   0.00114  -3.13841
   D27       -3.13800   0.00002   0.00022   0.00013   0.00035  -3.13766
   D28        0.00420  -0.00002   0.00029  -0.00154  -0.00126   0.00294
   D29       -1.00417   0.00024   0.00071   0.01090   0.01163  -0.99255
   D30        1.07897  -0.00012  -0.00017   0.00544   0.00526   1.08423
   D31       -3.10590  -0.00008   0.00014   0.00610   0.00623  -3.09967
   D32        2.13521   0.00028   0.00058   0.01348   0.01408   2.14929
   D33       -2.06483  -0.00009  -0.00030   0.00802   0.00772  -2.05711
   D34        0.03348  -0.00004   0.00001   0.00868   0.00868   0.04216
   D35        0.00450  -0.00000   0.00040  -0.00031   0.00009   0.00459
   D36       -3.13880  -0.00000   0.00023   0.00008   0.00032  -3.13849
   D37       -3.13771   0.00003   0.00034   0.00137   0.00170  -3.13601
   D38        0.00218   0.00004   0.00017   0.00176   0.00192   0.00410
   D39       -1.57540  -0.00004  -0.00019  -0.00494  -0.00513  -1.58053
   D40        1.56651  -0.00007  -0.00017  -0.00828  -0.00844   1.55807
   D41        1.56785  -0.00005  -0.00003  -0.00533  -0.00536   1.56248
   D42       -1.57343  -0.00008  -0.00000  -0.00867  -0.00867  -1.58210
         Item               Value     Threshold  Converged?
 Maximum Force            0.009312     0.000450     NO 
 RMS     Force            0.001962     0.000300     NO 
 Maximum Displacement     0.053580     0.001800     NO 
 RMS     Displacement     0.013393     0.001200     NO 
 Predicted change in Energy=-7.536720D-04
 GradGradGradGradGradGradGradGradGradGradGradGradGradGradGradGradGradGrad

                          Input orientation:                          
 ---------------------------------------------------------------------
 Center     Atomic      Atomic             Coordinates (Angstroms)
 Number     Number       Type             X           Y           Z
 ---------------------------------------------------------------------
      1          6           0       -0.819597   -0.996279   -0.002898
      2          6           0        0.579172   -1.008815   -0.009432
      3          6           0        1.253988    0.222667   -0.021748
      4          6           0        0.579511    1.454451   -0.011339
      5          6           0       -0.819168    1.442340   -0.004460
      6          6           0       -1.483724    0.223106   -0.003079
      7          1           0       -1.378666   -1.926031    0.003826
      8          1           0       -1.378068    2.372197    0.000674
      9          7           0       -2.961305    0.223508    0.000181
     10          8           0       -3.531661    0.232805   -1.089167
     11          8           0       -3.529348    0.211272    1.090435
     12          8           0        2.639155    0.222621    0.044426
     13          1           0        3.002943    0.219796   -0.858560
     14          6           0        1.353217    2.748850   -0.008075
     15          1           0        2.039729    2.794460    0.846055
     16          1           0        1.964620    2.852650   -0.914638
     17          1           0        0.675429    3.607600    0.043153
     18          6           0        1.352384   -2.303518   -0.003637
     19          1           0        1.962845   -2.410019   -0.910536
     20          1           0        2.039712   -2.347117    0.849943
     21          1           0        0.674306   -3.161850    0.050546
 ---------------------------------------------------------------------
                    Distance matrix (angstroms):
                    1          2          3          4          5
     1  C    0.000000
     2  C    1.398840   0.000000
     3  C    2.405398   1.404306   0.000000
     4  C    2.821995   2.463267   1.404393   0.000000
     5  C    2.438620   2.821975   2.405385   1.398748   0.000000
     6  C    1.388512   2.402751   2.737776   2.402752   1.388586
     7  H    1.084916   2.162080   3.398297   3.906706   3.414533
     8  H    3.414460   3.906678   3.398338   2.162063   1.084910
     9  N    2.464712   3.748825   4.215350   3.748697   2.464615
    10  O    3.169530   4.427911   4.903257   4.422202   3.161833
    11  O    3.161694   4.424732   4.910945   4.431943   3.171656
    12  O    3.667550   2.400597   1.386747   2.400552   3.667438
    13  H    4.101562   2.846958   1.938842   2.848715   4.102759
    14  C    4.329797   3.836560   2.528168   1.508012   2.535002
    15  H    4.823502   4.162930   2.825702   2.159395   3.274889
    16  H    4.837085   4.201164   2.866891   2.165511   3.250673
    17  H    4.840757   4.617718   3.434635   2.155973   2.631432
    18  C    2.535030   1.508028   2.528166   3.836630   4.329791
    19  H    3.250300   2.165621   2.867658   4.201940   4.837483
    20  H    3.275324   2.159341   2.825066   4.162441   4.823192
    21  H    2.631406   2.155970   3.434562   4.617689   4.840667
                    6          7          8          9         10
     6  C    0.000000
     7  H    2.151715   0.000000
     8  H    2.151690   4.298230   0.000000
     9  N    1.477584   2.669322   2.668990   0.000000
    10  O    2.318130   3.238919   3.225324   1.229664   0.000000
    11  O    2.319588   3.220904   3.238083   1.229421   2.179709
    12  O    4.123153   4.556450   4.556388   5.600635   6.274083
    13  H    4.567499   4.954471   4.956246   6.025753   6.538685
    14  C    3.798374   5.414595   2.757148   4.999252   5.600114
    15  H    4.443829   5.888787   3.546028   5.686444   6.430207
    16  H    4.431312   5.903976   3.498885   5.658094   6.091237
    17  H    4.014833   5.902705   2.396847   4.967873   5.510989
    18  C    3.798334   2.757025   5.414582   4.999379   5.609386
    19  H    4.431215   3.497999   5.904371   5.657926   6.099675
    20  H    4.443906   3.546623   5.888497   5.686860   6.438660
    21  H    4.014710   2.396690   5.902576   4.967982   5.523838
                   11         12         13         14         15
    11  O    0.000000
    12  O    6.256572   0.000000
    13  H    6.816853   0.973516   0.000000
    14  C    5.611191   2.835177   3.137042   0.000000
    15  H    6.143875   2.759761   3.234562   1.096776   0.000000
    16  H    6.417233   2.879558   2.830756   1.098382   1.763255
    17  H    5.505633   3.913350   4.208043   1.095205   1.779653
    18  C    5.599328   2.835395   3.134063   5.052370   5.213809
    19  H    6.406188   2.880996   2.828504   5.272572   5.493462
    20  H    6.133321   2.758938   3.230454   5.213094   5.141578
    21  H    5.489083   3.913478   4.205301   5.949851   6.162374
                   16         17         18         19         20
    16  H    0.000000
    17  H    1.774634   0.000000
    18  C    5.271700   5.949939   0.000000
    19  H    5.262671   6.227255   1.098395   0.000000
    20  H    5.491535   6.162048   1.096776   1.763278   0.000000
    21  H    6.226613   6.769454   1.095199   1.774616   1.779652
                   21
    21  H    0.000000
 Stoichiometry    C8H9NO3
 Framework group  C1[X(C8H9NO3)]
 Deg. of freedom    57
 Full point group                 C1      NOp   1
 Largest Abelian subgroup         C1      NOp   1
 Largest concise Abelian subgroup C1      NOp   1
                         Standard orientation:                         
 ---------------------------------------------------------------------
 Center     Atomic      Atomic             Coordinates (Angstroms)
 Number     Number       Type             X           Y           Z
 ---------------------------------------------------------------------
      1          6           0       -0.427462    1.218916   -0.002040
      2          6           0        0.971318    1.231654   -0.004453
      3          6           0        1.646373    0.000252    0.000836
      4          6           0        0.972017   -1.231611   -0.007942
      5          6           0       -0.426679   -1.219702   -0.005822
      6          6           0       -1.091403   -0.000570   -0.000269
      7          1           0       -0.986694    2.148593   -0.003141
      8          1           0       -0.985470   -2.149631   -0.009406
      9          7           0       -2.568974   -0.001194    0.005949
     10          8           0       -3.132328   -0.012964    1.098911
     11          8           0       -3.144002    0.013340   -1.080608
     12          8           0        3.031087    0.000658   -0.074222
     13          1           0        3.400660    0.001563    0.826415
[...]
 .17177525,-0.41417671,0.00597893,-0.21915139,0.53456926,0.00029097,0.0
 0026231,0.00398581,0.00001124,-0.00010731,-0.00082840,0.00002330,-0.00
 004815,0.00028773,-0.00009675,-0.00008946,-0.00057892,0.00045226,0.000
 23173,0.00145099,0.00060012,-0.00062930,0.01782198,0.00004334,-0.00003
 408,0.00044679,0.00016619,-0.00013055,0.00005073,-0.00054300,0.0056329
 8,-0.07675584,0.00027854,-0.01021309,0.02840576,-0.00185741,-0.0032410
 3,0.00021991,-0.00145244,-0.00281760,0.00012293,0.00425447,-0.00165808
 ,-0.00007091,-0.00388752,0.00021161,0.00009134,-0.00314104,0.00805530,
 -0.00004249,-0.03832142,-0.04990206,0.00350658,-0.00466470,-0.00073223
 ,0.00017778,0.00046510,-0.00029037,0.00000810,-0.23027252,-0.17584681,
 0.01094732,0.04677851,0.01792434,-0.00126342,0.23789645,0.01084936,-0.
 00838111,-0.00001191,-0.00387045,-0.00084420,0.00013232,0.00470915,0.0
 0024199,-0.00014961,-0.00292304,0.00254668,-0.00002069,0.00186004,0.00
 430914,-0.00006854,-0.03880392,-0.01258168,0.00228288,0.00027097,0.003
 38294,-0.00012137,0.00128249,0.00121414,-0.00006870,-0.16493505,-0.423
 45175,0.01714123,-0.01289912,-0.11302264,0.00517429,0.20861362,0.54604
 205,-0.00026072,0.00044193,0.00152081,0.00015869,0.00009858,-0.0006301
 2,-0.00028831,0.00005503,0.00029479,0.00019849,-0.00012165,-0.00082331
 ,0.00016847,-0.00026818,0.00406215,0.00312853,0.00264092,0.01751910,0.
 00014340,-0.00008882,0.00008301,-0.00004552,-0.00001808,0.00041159,0.0
 1057492,0.01749161,-0.07752440,-0.00021244,0.00418180,0.02639647,-0.01
 387246,-0.02438183,0.02936782,0.00877361,-0.00437443,0.00010448,-0.049
 12123,-0.01319990,0.00232430,-0.32051852,-0.04210910,0.01033394,-0.051
 82616,0.01585785,0.00132397,0.01092328,0.00453260,-0.00035100,-0.01622
 129,-0.00151851,0.00055310,-0.00132696,0.00040009,0.00001069,-0.000962
 76,-0.00024004,0.00003855,0.01629625,0.00007492,-0.00054998,-0.0048751
 1,0.00377589,0.00002836,-0.00486364,-0.00387906,0.00029106,0.50768233,
 0.00277701,-0.00829204,0.00044535,-0.04023757,0.00169356,0.00154976,0.
 00740130,-0.11467143,0.00218720,0.04686178,0.00280203,-0.00138854,-0.0
 0232158,-0.00918019,0.00055147,0.00025366,0.00326448,-0.00014224,-0.00
 149184,0.00034733,0.00001664,0.00156275,0.00033353,-0.00006290,-0.0005
 6676,-0.00017155,0.00000096,0.00000819,0.00036862,-0.00001287,0.000299
 84,0.00066164,-0.00003003,-0.13881576,0.54445061,-0.00013749,0.0006758
 7,0.00740831,0.00324835,0.00068069,0.00915176,0.00864840,0.00377668,-0
 .04390874,0.00026968,-0.00039203,0.00624554,-0.00011737,0.00033060,0.0
 0479734,0.00049183,-0.00008465,-0.00066764,0.00007480,-0.00004415,-0.0
 0057936,-0.00002321,-0.00000463,-0.00002789,-0.00052705,-0.00002014,-0
 .00067495,0.00015651,-0.00013396,-0.00000004,0.00014833,0.00010444,0.0
 0005720,-0.01062069,-0.01304626,0.03057099,-0.00094007,0.00129674,-0.0
 0002753,0.00122066,0.00158316,-0.00010842,-0.02745856,0.04726651,-0.00
 084036,-0.00639138,-0.00336705,0.00041300,-0.00023541,0.00196391,-0.00
 000827,0.00119848,-0.00038008,-0.00002447,0.00028007,-0.00005879,-0.00
 000197,-0.00039831,-0.00013303,0.00000533,-0.00135268,0.00004019,0.000
 04050,0.00050780,-0.00048134,0.00000043,0.00041926,0.00018717,-0.00002
 126,-0.10390032,0.12384108,-0.00102383,0.13534393,0.00098619,-0.000988
 31,-0.00001294,-0.00641377,0.00004518,0.00018855,0.00188576,0.00236019
 ,-0.00026224,-0.00335495,0.00224457,0.00012731,0.00138939,0.00027829,0
 .00000037,-0.00195560,-0.00027267,0.00007342,-0.00026865,0.00013866,0.
 00000950,-0.00003064,0.00010618,-0.00001501,0.00193451,0.00002487,-0.0
 0006497,-0.00046053,0.00042867,0.00000059,-0.00053846,-0.00054657,0.00
 003452,0.17614138,-0.42501855,0.00864816,-0.16885165,0.42256656,-0.000
 01720,-0.00002315,-0.00043050,0.00016401,-0.00006875,-0.00047158,0.000
 70648,-0.00171911,-0.00350688,0.00041091,0.00012896,0.00285268,0.00001
 153,-0.00001777,0.00159729,0.00002944,0.00002266,0.00003259,0.00000517
 ,0.00000255,0.00015812,0.00000170,-0.00001207,-0.00037286,-0.00002419,
 -0.00000393,-0.00005158,-0.00000022,0.00000121,0.00001145,0.00000351,0
 .00001115,-0.00004292,-0.00280550,0.01032583,-0.00488776,0.00157138,-0
 .00876774,0.00567910,-0.00201412,-0.00067427,0.00006234,-0.00217017,0.
 00514635,0.00006086,0.01303081,0.00793918,-0.00055973,-0.11885345,-0.0
 4945010,0.00320460,-0.01946054,-0.03107783,0.00182979,-0.00211236,0.00
 217625,0.00025731,0.00009967,-0.00001603,-0.00001908,0.00135850,-0.001
 18700,-0.00016590,-0.00013230,-0.00151615,0.00010238,0.00000419,0.0001
 0854,-0.00000410,-0.00066731,-0.00002708,-0.00000011,0.00045799,0.0030
 2460,-0.00023520,0.00000976,0.00013072,-0.00001260,0.56346840,0.000403
 16,-0.00037561,-0.00002714,0.00363929,-0.00108543,0.00009733,-0.010051
 78,-0.03153376,0.00154018,-0.05642267,-0.18604799,0.00572053,-0.007763
 60,-0.00110472,0.00043826,0.00228585,0.00149363,0.00015288,-0.00005832
 ,0.00000243,-0.00001538,0.00183710,0.00099701,-0.00026443,-0.00042755,
 0.00061613,0.00004191,0.00033004,-0.00016429,-0.00000535,0.00056597,0.
 00022289,-0.00004963,-0.00425657,0.00012172,0.00000876,-0.00070957,-0.
 00031944,0.00002474,-0.04858447,0.52865769,0.00002647,0.00000834,-0.00
 078830,0.00011203,0.00004609,0.00517111,0.00005668,0.00096005,0.004044
 72,0.00344035,0.00549385,-0.07200332,0.00103385,0.00118762,0.00433188,
 0.00025165,0.00015679,0.00814203,-0.00001755,-0.00001691,-0.00050585,-
 0.00026844,-0.00016743,-0.00502379,0.00006477,0.00007678,0.00143358,-0
 .00001154,0.00000170,-0.00000795,-0.00002022,-0.00003052,-0.00069608,0
 .00001378,-0.00022625,-0.00360521,0.00001532,-0.00000264,-0.00025836,0
 .00117440,0.00220913,0.54715627,0.00003333,0.00005316,-0.00002943,-0.0
 0037173,-0.00032180,0.00021394,-0.00112371,0.00186942,0.00045153,-0.01
 268028,-0.00496668,-0.01094134,0.00034141,-0.00210751,-0.00046013,-0.0
 0061047,-0.00029201,0.00101200,0.00000406,-0.00003275,-0.00004435,0.00
 014728,-0.00013690,-0.00064836,0.00037167,-0.00018115,0.00012536,-0.00
 017194,0.00006043,0.00002888,-0.00026336,-0.00012560,-0.00005403,0.001
 14832,-0.00002069,0.00012488,0.00003637,0.00013309,-0.00011925,-0.1453
 9356,-0.01222510,-0.12878671,0.15793397,-0.00081034,-0.00006053,-0.000
 15336,0.00028773,0.00078427,0.00093887,-0.00278010,-0.00042483,0.00006
 708,-0.01885293,-0.00338865,-0.02287851,0.00012602,-0.00247226,-0.0003
 2975,-0.00037134,-0.00039484,0.00114000,0.00002180,0.00000614,-0.00001
 366,-0.00010760,0.00005001,-0.00042220,0.00041525,-0.00034698,0.000310
 36,-0.00018401,0.00011320,-0.00002139,-0.00034648,-0.00009763,-0.00011
 106,0.00164944,0.00028209,-0.00056803,0.00011078,0.00011399,0.00028475
 ,-0.01366906,-0.05131830,-0.01908029,0.01896379,0.05362120,-0.00006850
 ,0.00008307,-0.00001720,0.00017608,-0.00004871,-0.00022201,-0.00173094
 ,0.00023935,0.00091475,0.00300483,-0.00096936,0.00493862,0.00082138,0.
 00036756,-0.00032974,0.00011409,-0.00015199,-0.00035909,0.00000980,-0.
 00000031,0.00005017,0.00005488,0.00001965,0.00016626,0.00006429,0.0000
 5155,-0.00003426,-0.00001314,-0.00001888,0.00000326,-0.00001460,-0.000
 01249,0.00002618,0.00065814,0.00052357,-0.00008936,0.00019106,0.000175
 29,-0.00001766,-0.12785034,-0.01879479,-0.20935017,0.14008466,0.019422
 68,0.22534990,0.00004117,0.00004923,0.00002212,-0.00039619,-0.00033353
 ,-0.00017880,-0.00103093,0.00182271,-0.00045153,-0.01204372,-0.0040899
 4,0.01230024,0.00031997,-0.00208618,0.00056006,-0.00067978,-0.00034892
 ,-0.00096809,0.00000648,-0.00002935,0.00004934,0.00018559,-0.00009326,
 0.00065448,0.00035753,-0.00019230,-0.00013713,-0.00017202,0.00005966,-
 0.00002178,-0.00025673,-0.00011968,0.00008040,0.00109096,-0.00006889,-
 0.00019630,0.00003069,0.00012881,0.00010808,-0.12898809,-0.00274243,0.
 12397181,0.01242797,0.00103331,-0.01727187,0.13999437,-0.00079264,-0.0
 0005382,0.00020722,0.00021266,0.00071926,-0.00101877,-0.00264755,-0.00
 043857,0.00019654,-0.01744046,-0.00168939,0.02448951,0.00009612,-0.002
 45714,0.00046865,-0.00044945,-0.00046129,-0.00110424,0.00002207,0.0000
 0733,0.00001506,-0.00008355,0.00007835,0.00043324,0.00038938,-0.000370
 42,-0.00031290,-0.00018088,0.00011581,0.00002548,-0.00033596,-0.000087
 68,0.00014066,0.00162906,0.00028262,0.00043706,0.00007854,0.00008158,-
 0.00029713,-0.00422768,-0.04946265,0.00821512,0.00205779,-0.00008451,-
 0.00188151,0.00868721,0.05174250,0.00011892,-0.00008443,-0.00003149,-0
 .00017943,0.00000713,-0.00013292,0.00204112,-0.00027006,0.00083507,-0.
 00071894,0.00169705,0.00259863,-0.00087137,-0.00008574,-0.00031968,-0.
 00006256,0.00018259,-0.00022417,-0.00000850,0.00000518,0.00004653,-0.0
 0005068,-0.00000740,0.00009907,-0.00011629,-0.00001603,0.00000364,0.00
 003684,0.00000734,0.00000081,0.00005590,0.00002804,0.00000960,-0.00084
 568,-0.00054524,-0.00002650,-0.00019938,-0.00019004,0.00001997,0.12313
 430,0.00782995,-0.22756468,0.01490486,0.00026420,-0.02232154,-0.135376
 96,-0.00788478,0.24512336,0.00003357,-0.00001052,-0.00000024,0.0007629
 4,-0.00050380,0.00000412,-0.00304363,-0.00289459,0.00022967,0.01135407
 ,-0.01608272,0.00013803,0.00065608,-0.00174793,0.00003460,0.00024551,-
 0.00012106,-0.00000973,-0.00001189,0.00001889,0.00000085,0.00005511,0.
 00042225,-0.00000665,-0.00001854,-0.00002049,0.00000024,0.00007072,0.0
 0004766,-0.00000496,0.00007930,0.00007089,-0.00000444,0.00007856,0.000
 90436,-0.00002902,0.00020518,0.00006383,-0.00000472,-0.15938263,0.1348
 9424,-0.00104836,-0.01186836,0.01440864,0.00175644,-0.01092699,0.01287
 553,-0.00183827,0.17180066,-0.00006031,0.00019259,-0.00000404,0.001525
 27,-0.00067291,-0.00001401,-0.00402515,-0.00334488,0.00027788,0.018124
 10,-0.02312630,0.00015656,0.00254130,0.00193519,-0.00015113,-0.0005385
 1,-0.00022791,0.00001946,-0.00005250,0.00004165,0.00000131,-0.00104830
 ,0.00030770,0.00003261,0.00068633,-0.00022048,-0.00001577,-0.00020436,
 0.00030609,-0.00000495,-0.00017993,-0.00004094,0.00000775,-0.00052875,
 0.00035489,0.00000950,-0.00003822,0.00005643,0.00000355,0.13051241,-0.
 21006179,0.00120049,-0.00269037,0.00361981,0.00102875,-0.00164359,0.00
 207159,-0.00097306,-0.14208163,0.22923051,0.00000110,-0.00000556,0.000
 01747,-0.00006526,0.00005144,0.00034415,0.00026794,0.00024166,0.001002
 20,-0.00102472,0.00126825,-0.00124981,-0.00011159,-0.00001346,-0.00010
 614,0.00000474,0.00000549,-0.00017621,0.00000320,-0.00000093,0.0000318
 4,0.00004317,-0.00001451,0.00028577,-0.00002380,0.00000693,-0.00003403
 ,0.00000362,-0.00001305,-0.00003227,0.00000406,-0.00000032,0.00001666,
 0.00001995,-0.00003574,0.00014039,-0.00000114,0.00000041,0.00012508,-0
 .00089954,0.00105760,-0.05021659,-0.01583107,0.02124707,0.00129173,0.0
 1682490,-0.02221881,0.00189371,0.00077618,-0.00159369,0.04681676,-0.01
 983873,0.03090579,-0.00031535,-0.12122122,0.04967760,-0.00007565,0.010
 11209,-0.00728520,0.00001815,-0.00150648,-0.00505681,0.00040663,-0.002
 01925,0.00027444,0.00003048,-0.00215247,-0.00211077,0.00039375,0.00137
 412,0.00107593,-0.00023670,0.00009602,0.00003330,-0.00002230,-0.000421
 11,0.00149582,0.00001301,-0.00058896,-0.00000892,-0.00000346,0.0001246
 0,-0.00001225,-0.00000430,0.00293954,-0.00331107,-0.00012216,0.0005200
 7,-0.00071343,0.00010112,0.00097847,-0.00085523,-0.00000792,-0.0000182
 2,0.00003845,-0.00000433,-0.00001706,0.00004381,0.00000281,-0.00015085
 ,-0.00042534,0.00001536,0.54952134,0.00753080,-0.00091507,-0.00010202,
 0.05777235,-0.17875085,0.00182177,0.00821124,-0.03166918,0.00091261,-0
 .00353090,-0.00154029,0.00036368,-0.00078900,-0.00038207,0.00001136,-0
 .00184197,0.00167114,0.00026858,-0.00171206,0.00096968,-0.00014149,0.0
 0008802,0.00000296,-0.00002210,0.00028466,0.00054160,0.00002631,-0.000
 52614,0.00017243,-0.00001312,-0.00026062,-0.00008963,0.00001059,0.0080
 8861,-0.00163057,-0.00035927,-0.00069100,0.00240060,0.00004748,0.00104
 077,-0.00050710,-0.00002191,0.00002268,0.00008763,0.00000137,0.0000233
 8,0.00009267,-0.00000883,-0.00016817,-0.00027813,0.00001074,0.04738320
 ,0.52711335,0.00048633,-0.00085835,0.00319686,-0.00034331,0.00207027,-
 0.07096611,-0.00052913,0.00141136,0.00277494,0.00035766,0.00040660,0.0
 0576508,0.00006157,-0.00002203,-0.00079411,0.00038999,0.00028270,0.007
 90185,-0.00014398,-0.00023384,-0.00486408,-0.00002447,-0.00002094,-0.0
 0057287,0.00005628,-0.00001260,0.00157861,0.00001315,-0.00002972,-0.00
 071265,0.00000374,0.00000240,-0.00002226,-0.00050514,-0.00000943,-0.00
 452943,0.00011257,0.00006074,0.00313058,-0.00007150,0.00003881,-0.0001
 6041,-0.00001649,-0.00008429,0.00000494,0.00001613,0.00007604,-0.00000
 170,0.00000653,0.00001879,-0.00012496,-0.00189642,-0.00103205,0.540284
 25,0.00021479,0.00232019,0.00051508,-0.01208944,0.00431654,0.01210816,
 -0.00156190,-0.00197066,-0.00035647,-0.00031380,0.00020176,-0.00008231
 ,-0.00004713,0.00000580,0.00002477,-0.00069895,0.00028323,-0.00102935,
 0.00018886,0.00013107,0.00066291,0.00000719,0.00003161,0.00003046,0.00
 046596,0.00022260,-0.00017710,-0.00032256,0.00013744,0.00008209,-0.000
 21937,-0.00009172,-0.00001343,0.00190389,0.00013961,-0.00034513,0.0001
 6784,-0.00043722,0.00033016,-0.00001572,-0.00002585,0.00001820,0.00002
 526,0.00002990,0.00000302,0.00003479,0.00003104,-0.00000604,0.00000116
 ,0.00002737,0.00001195,-0.12465910,0.01135376,0.11723238,0.13488030,-0
 .00052240,-0.00229476,-0.00052180,0.01685377,-0.00311845,-0.02342509,0
 .00321872,-0.00016542,-0.00013347,-0.00027163,0.00077968,0.00101540,0.
 00082647,0.00006217,-0.00018703,0.00050093,-0.00052023,0.00101914,0.00
 008254,0.00007700,-0.00038853,-0.00001511,0.00000366,-0.00003108,-0.00
 038671,-0.00036204,0.00036494,0.00032667,-0.00008154,-0.00013382,0.000
 16718,0.00012423,-0.00003708,-0.00200619,0.00174991,0.00031978,-0.0010
 0372,-0.00184077,-0.00133377,-0.00003892,0.00005110,-0.00007133,-0.000
 02227,-0.00006267,-0.00000924,-0.00001915,-0.00003192,0.00001954,-0.00
 000588,0.00000216,-0.00002116,0.01377078,-0.05125304,-0.02122006,-0.01
 723470,0.05375487,-0.00080765,0.00017198,-0.00029307,-0.00190911,-0.00
 161417,0.00508212,0.00229072,0.00055193,0.00073278,-0.00024918,-0.0000
 8322,-0.00031908,0.00010251,0.00011949,-0.00000778,-0.00013522,-0.0002
 0419,-0.00025484,-0.00007976,-0.00000337,0.00011463,-0.00001455,-0.000
 00451,0.00005639,-0.00003995,0.00004094,-0.00003061,0.00002103,-0.0000
 1028,0.00002019,0.00000767,-0.00003069,0.00000676,-0.00125614,0.000572
 03,0.00000668,-0.00063305,-0.00153942,-0.00099620,0.00001508,-0.000022
 59,0.00000907,0.00000044,-0.00001329,-0.00001744,0.00000056,-0.0000206
 9,0.00001727,-0.00001395,-0.00001015,-0.00000161,0.11744076,-0.0190054
 2,-0.22351212,-0.12943142,0.02203829,0.24140389,0.00022916,0.00226278,
 -0.00070164,-0.01270132,0.00364754,-0.01131468,-0.00166927,-0.00196601
 ,0.00064466,-0.00029523,0.00021059,0.00007105,-0.00005567,-0.00000206,
 -0.00002224,-0.00062363,0.00036639,0.00103507,0.00014904,0.00008530,-0
 .00067482,0.00000620,0.00002978,-0.00002985,0.00047980,0.00023067,0.00
 012958,-0.00032906,0.00013298,-0.00006921,-0.00021879,-0.00008886,0.00
 003407,0.00200233,0.00013439,0.00019144,0.00018263,-0.00036463,-0.0003
 7924,-0.00001788,-0.00002572,-0.00001483,0.00003509,0.00003251,0.00000
 261,0.00002491,0.00003032,-0.00000776,0.00000111,0.00002717,-0.0000140
 5,-0.13970632,0.00409632,-0.12308112,0.01302136,-0.00098443,0.01494724
 ,0.15147086,-0.00043643,-0.00225416,0.00068566,0.01842844,-0.00146560,
 0.02278248,0.00306951,-0.00019574,-0.00000365,-0.00032311,0.00071151,-
 0.00106811,0.00082972,0.00006573,0.00012892,0.00044301,-0.00058104,-0.
 00102996,0.00011241,0.00010353,0.00038464,-0.00001179,0.00000633,0.000
 03523,-0.00040708,-0.00038732,-0.00031548,0.00033333,-0.00007233,0.000
 11909,0.00016867,0.00012844,0.00001792,-0.00193640,0.00170452,-0.00031
 793,-0.00086861,-0.00163302,0.00143523,-0.00003493,0.00005728,0.000070
 71,-0.00002034,-0.00003164,-0.00001494,-0.00002160,-0.00006098,0.00001
 363,-0.00000361,0.00000407,0.00002113,0.00663215,-0.04934277,0.0093894
 8,-0.00210915,-0.00055044,-0.00152347,-0.00929585,0.05165534,0.0008067
 7,-0.00018544,-0.00033418,0.00178337,0.00182953,0.00403481,-0.00234089
 ,-0.00036063,0.00087505,0.00026827,0.00000088,-0.00027308,-0.00015462,
 -0.00012529,-0.00000022,0.00012626,0.00020438,-0.00027404,0.00007033,-
 0.00000094,0.00012578,0.00001853,0.00000606,0.00005456,0.00003533,-0.0
 0003139,-0.00001739,-0.00002138,0.00000813,0.00001726,-0.00000487,0.00
 002802,0.00000182,0.00124917,-0.00069397,-0.00002444,0.00061075,0.0015
 9710,-0.00121568,-0.00001114,0.00002105,0.00000459,-0.00000031,0.00002
 195,0.00001670,-0.00000175,0.00001421,-0.00001865,0.00001400,0.0000080
 5,-0.00000371,-0.12344726,0.00731794,-0.21036978,-0.01700659,0.0002029
 4,-0.02164314,0.13604530,-0.00901075,0.22687980,0.00041538,0.00184022,
 -0.00007441,0.01185640,0.01677437,-0.00096411,-0.00356407,0.00299145,0
 .00004425,0.00088631,0.00052628,-0.00003956,-0.00002533,-0.00001695,0.
 00000285,0.00020323,0.00015788,-0.00001551,0.00008971,-0.00046144,0.00
 002340,-0.00001267,-0.00002250,0.00000192,0.00000466,0.00006684,-0.000
 00410,0.00007420,-0.00008107,0.00000096,0.00006857,-0.00006786,-0.0000
 0102,0.00031893,-0.00037440,0.00002323,0.00055402,0.00059586,-0.000080
 57,-0.00019966,0.00019320,-0.00000377,-0.00000309,0.00000423,0.0000124
 4,-0.00000291,0.00000464,-0.00001288,0.00005892,0.00007300,-0.00000500
 ,-0.15336649,-0.13637594,0.00787523,-0.01098342,-0.01323596,-0.0002560
 3,-0.01198530,-0.01454834,0.00196074,0.16561262,-0.00259916,0.00218951
 ,0.00000962,-0.01689495,-0.02311910,0.00127075,0.00385695,-0.00332526,
 0.00002065,-0.00142380,-0.00075896,0.00008183,0.00005950,0.00023901,-0
 .00000892,0.00046397,-0.00022935,-0.00001083,0.00102976,0.00017362,-0.
 00002970,0.00004930,0.00004222,-0.00000217,-0.00055100,-0.00020164,0.0
 0002313,0.00012794,-0.00001597,-0.00000305,0.00014312,0.00026967,-0.00
 001493,0.00071488,0.00054679,-0.00002049,0.00021497,-0.00022643,-0.000
 04468,0.00042471,-0.00023880,-0.00000940,-0.00001719,0.00000452,-0.000
 01061,-0.00001548,0.00000664,0.00001097,-0.00006590,-0.00014933,0.0000
 0652,-0.13155227,-0.21669338,0.00976612,0.00263736,0.00367649,0.000590
 79,0.00144080,0.00213831,-0.00085183,0.14195648,0.23567145,0.00007533,
 -0.00013363,-0.00002243,0.00016222,0.00022288,-0.00104770,0.00001891,0
 .00004992,0.00099257,0.00002689,0.00001950,0.00025851,0.00000138,-0.00
 000581,0.00003522,-0.00002661,-0.00000282,-0.00014301,-0.00002616,0.00
 001848,0.00035209,-0.00000028,0.00000040,0.00003095,0.00001688,0.00000
 293,-0.00004442,-0.00000603,0.00000373,0.00001684,-0.00000820,-0.00000
 807,-0.00003485,-0.00001535,0.00002063,0.00064310,-0.00007064,-0.00006
 095,-0.00135487,-0.00001179,-0.00000185,-0.00011254,-0.00001509,-0.000
 02111,-0.00000405,0.00001608,0.00002004,-0.00000632,-0.00000032,0.0000
 0209,-0.00002042,0.00771377,0.00991377,-0.04800662,0.01742867,0.022533
 44,-0.00037390,-0.01679160,-0.02179982,0.00216393,-0.00848806,-0.01077
 375,0.04667792\\-0.00001007,0.00000126,0.00000194,0.00000712,0.0000052
 5,-0.00000212,-0.00001651,0.00000016,-0.00000020,0.00000114,-0.0000033
 4,0.00000008,-0.00000087,0.00000187,-0.00000296,0.00001448,-0.00000305
 ,-0.00000030,-0.00000035,0.00000064,-0.00000057,0.00000122,-0.00000031
 ,0.00000109,-0.00001107,0.00000334,0.00000408,0.00000304,-0.00000405,-
 0.00000120,0.00000015,0.00000337,-0.00000109,0.00000850,0.00000079,0.0
 0000170,0.00000015,-0.00000103,-0.00000142,0.00000343,0.00000292,0.000
 01228,0.00000007,-0.00000254,-0.00000432,0.00000218,0.00000073,-0.0000
 0542,0.00000079,0.00000013,-0.00000353,-0.00000036,-0.00000584,0.00000
 200,-0.00000014,0.00000097,0.00000106,-0.00000117,-0.00000067,0.000000
 24,-0.00000174,-0.00000060,-0.00000133\\\@
 The archive entry for this job was punched.


 ARTHROPOD AXIOM: A COMPUTER SYSTEM IS LIKE A SPIDER'S WEB.
 YOU CANNOT PULL ON ONE END WITHOUT MAKING THE OTHER END MOVE.
     -- GREG WETTSTEIN
 Job cpu time:       0 days  1 hours 38 minutes 33.1 seconds.
 Elapsed time:       0 days  0 hours  1 minutes 30.5 seconds.
 File lengths (MBytes):  RWF=    167 Int=      0 D2E=      0 Chk=     11 Scr=      1
 Normal termination of Gaussian 16 at Sun Jun 12 09:49:35 2022.
