 Entering Gaussian System, Link 0=/home/rong/g16/g16
 Input=/home/rong/g16/092321/ClClbz.gjf
 Output=/home/rong/g16/092321/ClClbz.log
 Initial command:
 /home/rong/g16/l1.exe "/tmp/Gau-87097.inp" -scrdir="/tmp/"
 Default is to use a total of   8 processors:
                                8 via shared-memory
                                1 via Linda
 Entering Link 1 = /home/rong/g16/l1.exe PID=     87099.
  
 Copyright (c) 1988-2019, Gaussian, Inc.  All Rights Reserved.
  
 This is part of the Gaussian(R) 16 program.  It is based on
 the Gaussian(R) 09 system (copyright 2009, Gaussian, Inc.),
 the Gaussian(R) 03 system (copyright 2003, Gaussian, Inc.),
 the Gaussian(R) 98 system (copyright 1998, Gaussian, Inc.),
 the Gaussian(R) 94 system (copyright 1995, Gaussian, Inc.),
 the Gaussian 92(TM) system (copyright 1992, Gaussian, Inc.),
 the Gaussian 90(TM) system (copyright 1990, Gaussian, Inc.),
 the Gaussian 88(TM) system (copyright 1988, Gaussian, Inc.),
 the Gaussian 86(TM) system (copyright 1986, Carnegie Mellon
 University), and the Gaussian 82(TM) system (copyright 1983,
 Carnegie Mellon University). Gaussian is a federally registered
 trademark of Gaussian, Inc.
  
 This software contains proprietary and confidential information,
 including trade secrets, belonging to Gaussian, Inc.
  
 This software is provided under written license and may be
 used, copied, transmitted, or stored only in accord with that
 written license.
  
 The following legend is applicable only to US Government
 contracts under FAR:
  
                    RESTRICTED RIGHTS LEGEND
  
 Use, reproduction and disclosure by the US Government is
 subject to restrictions as set forth in subparagraphs (a)
 and (c) of the Commercial Computer Software - Restricted
 Rights clause in FAR 52.227-19.
  
 Gaussian, Inc.
 340 Quinnipiac St., Bldg. 40, Wallingford CT 06492
  
  
 ---------------------------------------------------------------
 Warning -- This program may not be used in any manner that
 competes with the business of Gaussian, Inc. or will provide
 assistance to any competitor of Gaussian, Inc.  The licensee
 of this program is prohibited from giving any competitor of
 Gaussian, Inc. access to this program.  By using this program,
 the user acknowledges that Gaussian, Inc. is engaged in the
 business of creating and licensing software in the field of
 computational chemistry and represents and warrants to the
 licensee that it is not a competitor of Gaussian, Inc. and that
 it will not use this program in any manner prohibited above.
 ---------------------------------------------------------------
  

 Cite this work as:
 Gaussian 16, Revision C.01,
 M. J. Frisch, G. W. Trucks, H. B. Schlegel, G. E. Scuseria, 
 M. A. Robb, J. R. Cheeseman, G. Scalmani, V. Barone, 
 G. A. Petersson, H. Nakatsuji, X. Li, M. Caricato, A. V. Marenich, 
 J. Bloino, B. G. Janesko, R. Gomperts, B. Mennucci, H. P. Hratchian, 
 J. V. Ortiz, A. F. Izmaylov, J. L. Sonnenberg, D. Williams-Young, 
 F. Ding, F. Lipparini, F. Egidi, J. Goings, B. Peng, A. Petrone, 
 T. Henderson, D. Ranasinghe, V. G. Zakrzewski, J. Gao, N. Rega, 
 G. Zheng, W. Liang, M. Hada, M. Ehara, K. Toyota, R. Fukuda, 
 J. Hasegawa, M. Ishida, T. Nakajima, Y. Honda, O. Kitao, H. Nakai, 
 T. Vreven, K. Throssell, J. A. Montgomery, Jr., J. E. Peralta, 
 F. Ogliaro, M. J. Bearpark, J. J. Heyd, E. N. Brothers, K. N. Kudin, 
 V. N. Staroverov, T. A. Keith, R. Kobayashi, J. Normand, 
 K. Raghavachari, A. P. Rendell, J. C. Burant, S. S. Iyengar, 
 J. Tomasi, M. Cossi, J. M. Millam, M. Klene, C. Adamo, R. Cammi, 
 J. W. Ochterski, R. L. Martin, K. Morokuma, O. Farkas, 
 J. B. Foresman, and D. J. Fox, Gaussian, Inc., Wallingford CT, 2019.
 
 ******************************************
 Gaussian 16:  ES64L-G16RevC.01  3-Jul-2019
                23-Sep-2021 
 ******************************************
 %mem=15GB
 %chk=ClClbz.chk
 %nprocshared=8
 Will use up to    8 processors via shared memory.
 ----------------------------------------------------
 # opt freq b3lyp/6-31g(d) scrf=(smd,solvent=toluene)
 ----------------------------------------------------
 1/18=20,19=15,26=3,38=1/1,3;
 2/9=110,12=2,17=6,18=5,40=1/2;
 3/5=1,6=6,7=1,11=2,25=1,30=1,70=32201,71=1,72=13,74=-5/1,2,3;
 4//1;
 5/5=2,38=5,53=13/2;
 6/7=2,8=2,9=2,10=2,28=1/1;
 7//1,2,3,16;
 1/18=20,19=15,26=3/3(2);
 2/9=110/2;
 99//99;
 2/9=110/2;
 3/5=1,6=6,7=1,11=2,25=1,30=1,70=32205,71=1,72=13,74=-5/1,2,3;
 4/5=5,16=3,69=1/1;
 5/5=2,38=5,53=13/2;
 7//1,2,3,16;
 1/18=20,19=15,26=3/3(-5);
 2/9=110/2;
 6/7=2,8=2,9=2,10=2,19=2,28=1/1;
 99/9=1/99;
 ------
 ClClbz
 ------
 Symbolic Z-matrix:
 Charge =  0 Multiplicity = 1
 C                    -0.05882  -0.01471  -0.00077 
 C                     1.33634  -0.01471  -0.00077 
 C                     2.03388   1.19305  -0.00077 
 C                     1.33623   2.40155  -0.00197 
 C                    -0.0586    2.40148  -0.00245 
 C                    -0.7562    1.19327  -0.00145 
 H                    -0.60858  -0.96702  -0.00032 
 H                    -0.60872   3.35376  -0.0034 
 C                     2.10673   3.73494  -0.00205 
 H                     2.3057    4.03196   1.00646 
 H                     3.03115   3.61266  -0.52684 
 H                     1.51869   4.48665  -0.48583 
 O                     3.46388   1.19315   0.00005 
 H                     3.78412   0.41419   0.46078 
 Cl                   -2.5162    1.19356  -0.00174 
 Cl                    2.21583  -1.5392    0.00133 
 

 GradGradGradGradGradGradGradGradGradGradGradGradGradGradGradGradGradGrad
 Berny optimization.
 Initialization pass.
                           ----------------------------
                           !    Initial Parameters    !
                           ! (Angstroms and Degrees)  !
 --------------------------                            --------------------------
 ! Name  Definition              Value          Derivative Info.                !
 --------------------------------------------------------------------------------
 ! R1    R(1,2)                  1.3952         estimate D2E/DX2                !
 ! R2    R(1,6)                  1.3948         estimate D2E/DX2                !
 ! R3    R(1,7)                  1.0996         estimate D2E/DX2                !
 ! R4    R(2,3)                  1.3947         estimate D2E/DX2                !
 ! R5    R(2,16)                 1.76           estimate D2E/DX2                !
 ! R6    R(3,4)                  1.3954         estimate D2E/DX2                !
 ! R7    R(3,13)                 1.43           estimate D2E/DX2                !
 ! R8    R(4,5)                  1.3948         estimate D2E/DX2                !
 ! R9    R(4,9)                  1.54           estimate D2E/DX2                !
 ! R10   R(5,6)                  1.3951         estimate D2E/DX2                !
 ! R11   R(5,8)                  1.0998         estimate D2E/DX2                !
 ! R12   R(6,15)                 1.76           estimate D2E/DX2                !
 ! R13   R(9,10)                 1.07           estimate D2E/DX2                !
 ! R14   R(9,11)                 1.07           estimate D2E/DX2                !
 ! R15   R(9,12)                 1.07           estimate D2E/DX2                !
 ! R16   R(13,14)                0.96           estimate D2E/DX2                !
 ! A1    A(2,1,6)              119.9985         estimate D2E/DX2                !
 ! A2    A(2,1,7)              119.9972         estimate D2E/DX2                !
 ! A3    A(6,1,7)              120.0043         estimate D2E/DX2                !
 ! A4    A(1,2,3)              120.0086         estimate D2E/DX2                !
 ! A5    A(1,2,16)             119.9808         estimate D2E/DX2                !
 ! A6    A(3,2,16)             120.0106         estimate D2E/DX2                !
 ! A7    A(2,3,4)              119.9942         estimate D2E/DX2                !
 ! A8    A(2,3,13)             120.0128         estimate D2E/DX2                !
 ! A9    A(4,3,13)             119.993          estimate D2E/DX2                !
 ! A10   A(3,4,5)              119.994          estimate D2E/DX2                !
 ! A11   A(3,4,9)              119.9811         estimate D2E/DX2                !
 ! A12   A(5,4,9)              120.0249         estimate D2E/DX2                !
 ! A13   A(4,5,6)              120.0047         estimate D2E/DX2                !
 ! A14   A(4,5,8)              120.0113         estimate D2E/DX2                !
 ! A15   A(6,5,8)              119.984          estimate D2E/DX2                !
 ! A16   A(1,6,5)              120.0            estimate D2E/DX2                !
 ! A17   A(1,6,15)             120.008          estimate D2E/DX2                !
 ! A18   A(5,6,15)             119.992          estimate D2E/DX2                !
 ! A19   A(4,9,10)             109.4712         estimate D2E/DX2                !
 ! A20   A(4,9,11)             109.4712         estimate D2E/DX2                !
 ! A21   A(4,9,12)             109.4712         estimate D2E/DX2                !
 ! A22   A(10,9,11)            109.4713         estimate D2E/DX2                !
 ! A23   A(10,9,12)            109.4712         estimate D2E/DX2                !
 ! A24   A(11,9,12)            109.4712         estimate D2E/DX2                !
 ! A25   A(3,13,14)            109.5            estimate D2E/DX2                !
 ! D1    D(6,1,2,3)              0.0323         estimate D2E/DX2                !
 ! D2    D(6,1,2,16)           179.9532         estimate D2E/DX2                !
 ! D3    D(7,1,2,3)           -179.9729         estimate D2E/DX2                !
 ! D4    D(7,1,2,16)            -0.052          estimate D2E/DX2                !
 ! D5    D(2,1,6,5)              0.0149         estimate D2E/DX2                !
 ! D6    D(2,1,6,15)           179.9892         estimate D2E/DX2                !
 ! D7    D(7,1,6,5)           -179.9798         estimate D2E/DX2                !
 ! D8    D(7,1,6,15)            -0.0056         estimate D2E/DX2                !
 ! D9    D(1,2,3,4)             -0.0568         estimate D2E/DX2                !
 ! D10   D(1,2,3,13)           179.9619         estimate D2E/DX2                !
 ! D11   D(16,2,3,4)          -179.9777         estimate D2E/DX2                !
 ! D12   D(16,2,3,13)            0.041          estimate D2E/DX2                !
 ! D13   D(2,3,4,5)              0.0341         estimate D2E/DX2                !
 ! D14   D(2,3,4,9)           -179.9964         estimate D2E/DX2                !
 ! D15   D(13,3,4,5)          -179.9846         estimate D2E/DX2                !
 ! D16   D(13,3,4,9)            -0.0151         estimate D2E/DX2                !
 ! D17   D(2,3,13,14)          -30.5729         estimate D2E/DX2                !
 ! D18   D(4,3,13,14)          149.4458         estimate D2E/DX2                !
 ! D19   D(3,4,5,6)              0.0131         estimate D2E/DX2                !
 ! D20   D(3,4,5,8)           -179.9995         estimate D2E/DX2                !
 ! D21   D(9,4,5,6)           -179.9563         estimate D2E/DX2                !
 ! D22   D(9,4,5,8)              0.0311         estimate D2E/DX2                !
 ! D23   D(3,4,9,10)           -88.6004         estimate D2E/DX2                !
 ! D24   D(3,4,9,11)            31.3997         estimate D2E/DX2                !
 ! D25   D(3,4,9,12)           151.3996         estimate D2E/DX2                !
 ! D26   D(5,4,9,10)            91.3691         estimate D2E/DX2                !
 ! D27   D(5,4,9,11)          -148.6309         estimate D2E/DX2                !
 ! D28   D(5,4,9,12)           -28.6309         estimate D2E/DX2                !
 ! D29   D(4,5,6,1)             -0.0376         estimate D2E/DX2                !
 ! D30   D(4,5,6,15)           179.9881         estimate D2E/DX2                !
 ! D31   D(8,5,6,1)            179.975          estimate D2E/DX2                !
 ! D32   D(8,5,6,15)             0.0007         estimate D2E/DX2                !
 --------------------------------------------------------------------------------
 Trust Radius=3.00D-01 FncErr=1.00D-07 GrdErr=1.00D-06 EigMax=2.50D+02 EigMin=1.00D-04
 Number of steps in this run=     83 maximum allowed number of steps=    100.
 GradGradGradGradGradGradGradGradGradGradGradGradGradGradGradGradGradGrad

                          Input orientation:                          
 ---------------------------------------------------------------------
 Center     Atomic      Atomic             Coordinates (Angstroms)
 Number     Number       Type             X           Y           Z
 ---------------------------------------------------------------------
      1          6           0       -0.058818   -0.014706   -0.000770
      2          6           0        1.336342   -0.014706   -0.000770
      3          6           0        2.033880    1.193045   -0.000770
      4          6           0        1.336226    2.401554   -0.001969
      5          6           0       -0.058599    2.401476   -0.002448
      6          6           0       -0.756200    1.193270   -0.001452
      7          1           0       -0.608577   -0.967023   -0.000320
      8          1           0       -0.608721    3.353757   -0.003401
      9          6           0        2.106730    3.734942   -0.002052
     10          1           0        2.305702    4.031960    1.006457
     11          1           0        3.031148    3.612663   -0.526835
     12          1           0        1.518688    4.486648   -0.485834
     13          8           0        3.463879    1.193149    0.000054
     14          1           0        3.784125    0.414192    0.460780
     15         17           0       -2.516200    1.193563   -0.001740
     16         17           0        2.215830   -1.539204    0.001335
 ---------------------------------------------------------------------
                    Distance matrix (angstroms):
                    1          2          3          4          5
     1  C    0.000000
     2  C    1.395160   0.000000
     3  C    2.416205   1.394712   0.000000
     4  C    2.790065   2.416260   1.395427   0.000000
     5  C    2.416183   2.789946   2.416356   1.394825   0.000000
     6  C    1.394829   2.416183   2.790080   2.416236   1.395138
     7  H    1.099610   2.165553   3.412986   3.889675   3.413102
     8  H    3.413055   3.889707   3.413506   2.165528   1.099761
     9  C    4.330065   3.827971   2.542941   1.540000   2.542987
    10  H    4.793847   4.281317   3.024538   2.148263   3.044058
    11  H    4.794001   4.038183   2.669427   2.148263   3.359836
    12  H    4.794372   4.531084   3.368758   2.148263   2.658842
    13  O    3.724019   2.446494   1.430000   2.446867   3.723965
    14  H    3.894252   2.527573   1.970533   3.186841   4.350909
    15  Cl   2.738365   4.037573   4.550080   4.037379   2.738404
    16  Cl   2.738271   1.760000   2.738302   4.037734   4.549946
                    6          7          8          9         10
     6  C    0.000000
     7  H    2.165331   0.000000
     8  H    2.165516   4.320781   0.000000
     9  C    3.828376   5.429675   2.742076   0.000000
    10  H    4.295264   5.873369   3.158107   1.070000   0.000000
    11  H    4.524765   5.873529   3.686417   1.070000   1.747303
    12  H    4.031883   5.873969   2.458059   1.070000   1.747303
    13  O    4.220080   4.609908   4.610240   2.881418   3.226928
    14  H    4.629814   4.627764   5.305997   3.749033   3.946105
    15  Cl   1.760000   2.882214   2.881825   5.275423   5.685394
    16  Cl   4.037250   2.881783   5.649707   5.275276   5.661821
                   11         12         13         14         15
    11  H    0.000000
    12  H    1.747303   0.000000
    13  O    2.513745   3.855774   0.000000
    14  H    3.431119   4.755332   0.960000   0.000000
    15  Cl   6.074607   5.230591   5.980080   6.365174   0.000000
    16  Cl   5.242656   6.085576   3.003895   2.546840   5.464443
                   16
    16  Cl   0.000000
 Stoichiometry    C7H6Cl2O
 Framework group  C1[X(C7H6Cl2O)]
 Deg. of freedom    42
 Full point group                 C1      NOp   1
 Largest Abelian subgroup         C1      NOp   1
 Largest concise Abelian subgroup C1      NOp   1
                         Standard orientation:                         
 ---------------------------------------------------------------------
 Center     Atomic      Atomic             Coordinates (Angstroms)
 Number     Number       Type             X           Y           Z
 ---------------------------------------------------------------------
      1          6           0       -0.508833   -1.138603   -0.002506
      2          6           0        0.829110   -0.743201   -0.008538
      3          6           0        1.155755    0.612720   -0.010298
      4          6           0        0.144207    1.573957   -0.007225
      5          6           0       -1.193396    1.178575   -0.001673
      6          6           0       -1.519968   -0.177800    0.001083
      7          1           0       -0.766150   -2.207681   -0.000669
      8          1           0       -1.990845    1.935901    0.000742
      9          6           0        0.505219    3.071043   -0.009252
     10          1           0        0.616333    3.412504    0.998695
     11          1           0        1.424050    3.215646   -0.538155
     12          1           0       -0.273895    3.625160   -0.489706
     13          8           0        2.527084    1.018096   -0.015656
     14          1           0        3.057005    0.361942    0.442870
     15         17           0       -3.207873   -0.676320    0.008404
     16         17           0        2.104594   -1.955937   -0.011820
 ---------------------------------------------------------------------
 Rotational constants (GHZ):           1.2701510           0.7110631           0.4573027
 Standard basis: 6-31G(d) (6D, 7F)
 There are   170 symmetry adapted cartesian basis functions of A   symmetry.
 There are   170 symmetry adapted basis functions of A   symmetry.
   170 basis functions,   352 primitive gaussians,   170 cartesian basis functions
    45 alpha electrons       45 beta electrons
       nuclear repulsion energy       650.3297121867 Hartrees.
 NAtoms=   16 NActive=   16 NUniq=   16 SFac= 1.00D+00 NAtFMM=   60 NAOKFM=F Big=F
 Integral buffers will be    131072 words long.
 Raffenetti 2 integral format.
 Two-electron integral symmetry is turned on.
 ------------------------------------------------------------------------------
 Polarizable Continuum Model (PCM)
 =================================
 Model                : PCM.
 Atomic radii         : SMD-Coulomb.
 Polarization charges : Total charges.
 Charge compensation  : None.
 Solution method      : On-the-fly selection.
 Cavity type          : VdW (van der Waals Surface) (Alpha=1.000).
 Cavity algorithm     : GePol (No added spheres)
                        Default sphere list used, NSphG=   16.
                        Lebedev-Laikov grids with approx.  5.0 points / Ang**2.
                        Smoothing algorithm: York/Karplus (Gamma=1.0000).
                        Polarization charges: spherical gaussians, with
                                              point-specific exponents (IZeta= 3).
                        Self-potential: point-specific (ISelfS= 7).
                        Self-field    : sphere-specific E.n sum rule (ISelfD= 2).
 1st derivatives      : Analytical E(r).r(x)/FMM algorithm (CHGder, D1EAlg=3).
                        Cavity 1st derivative terms included.
 Solvent              : Toluene, Eps=   2.374100 Eps(inf)=   2.238315
 ------------------------------------------------------------------------------
 Spheres list:
 ISph  on   Nord     Re0    Alpha      Xe            Ye            Ze
    1   C      1    1.8500  1.000     -0.508833     -1.138603     -0.002506
    2   C      2    1.8500  1.000      0.829110     -0.743201     -0.008538
    3   C      3    1.8500  1.000      1.155755      0.612720     -0.010298
    4   C      4    1.8500  1.000      0.144207      1.573957     -0.007225
    5   C      5    1.8500  1.000     -1.193396      1.178575     -0.001673
    6   C      6    1.8500  1.000     -1.519968     -0.177800      0.001083
    7   H      7    1.2000  1.000     -0.766150     -2.207681     -0.000669
    8   H      8    1.2000  1.000     -1.990845      1.935901      0.000742
    9   C      9    1.8500  1.000      0.505219      3.071043     -0.009252
   10   H     10    1.2000  1.000      0.616333      3.412504      0.998695
   11   H     11    1.2000  1.000      1.424050      3.215646     -0.538155
   12   H     12    1.2000  1.000     -0.273895      3.625160     -0.489706
   13   O     13    2.2940  1.000      2.527084      1.018096     -0.015656
   14   H     14    1.2000  1.000      3.057005      0.361942      0.442870
   15  Cl     15    2.3800  1.000     -3.207873     -0.676320      0.008404
   16  Cl     16    2.3800  1.000      2.104594     -1.955937     -0.011820
 ------------------------------------------------------------------------------
 ------------------------------------------------------------------------------
 Atomic radii for non-electrostatic terms: SMD-CDS.
 ------------------------------------------------------------------------------
 Nuclear repulsion after PCM non-electrostatic terms =      650.3223746631 Hartrees.
 One-electron integrals computed using PRISM.
 NBasis=   170 RedAO= T EigKep=  3.87D-04  NBF=   170
 NBsUse=   170 1.00D-06 EigRej= -1.00D+00 NBFU=   170
 ExpMin= 1.43D-01 ExpMax= 2.52D+04 ExpMxC= 3.78D+03 IAcc=3 IRadAn=         5 AccDes= 0.00D+00
 Harris functional with IExCor=  402 and IRadAn=       5 diagonalized for initial guess.
 HarFok:  IExCor=  402 AccDes= 0.00D+00 IRadAn=         5 IDoV= 1 UseB2=F ITyADJ=14
 ICtDFT=  3500011 ScaDFX=  1.000000  1.000000  1.000000  1.000000
 FoFCou: FMM=F IPFlag=           0 FMFlag=      100000 FMFlg1=           0
         NFxFlg=           0 DoJE=T BraDBF=F KetDBF=T FulRan=T
         wScrn=  0.000000 ICntrl=       500 IOpCl=  0 I1Cent=   200000004 NGrid=           0
         NMat0=    1 NMatS0=      1 NMatT0=    0 NMatD0=    1 NMtDS0=    0 NMtDT0=    0
 Petite list used in FoFCou.
 Requested convergence on RMS density matrix=1.00D-08 within 128 cycles.
 Requested convergence on MAX density matrix=1.00D-06.
 Requested convergence on             energy=1.00D-06.
 No special actions if energy rises.
 Inv3:  Mode=1 IEnd=     8236947.
 Iteration    1 A*A^-1 deviation from unit magnitude is 3.33D-15 for   1626.
 Iteration    1 A*A^-1 deviation from orthogonality  is 2.83D-15 for   1657   1527.
 Iteration    1 A^-1*A deviation from unit magnitude is 3.11D-15 for   1626.
 Iteration    1 A^-1*A deviation from orthogonality  is 2.44D-15 for   1652   1515.
 Error on total polarization charges =  0.01198
 SCF Done:  E(RB3LYP) =  -1265.97711245     A.U. after   13 cycles
            NFock= 13  Conv=0.76D-08     -V/T= 2.0049
 SMD-CDS (non-electrostatic) energy       (kcal/mol) =      -4.60
 (included in total energy above)

 **********************************************************************

            Population analysis using the SCF Density.

 **********************************************************************

 Orbital symmetries:
       Occupied  (A) (A) (A) (A) (A) (A) (A) (A) (A) (A) (A) (A)
                 (A) (A) (A) (A) (A) (A) (A) (A) (A) (A) (A) (A)
                 (A) (A) (A) (A) (A) (A) (A) (A) (A) (A) (A) (A)
                 (A) (A) (A) (A) (A) (A) (A) (A) (A)
       Virtual   (A) (A) (A) (A) (A) (A) (A) (A) (A) (A) (A) (A)
                 (A) (A) (A) (A) (A) (A) (A) (A) (A) (A) (A) (A)
                 (A) (A) (A) (A) (A) (A) (A) (A) (A) (A) (A) (A)
                 (A) (A) (A) (A) (A) (A) (A) (A) (A) (A) (A) (A)
                 (A) (A) (A) (A) (A) (A) (A) (A) (A) (A) (A) (A)
                 (A) (A) (A) (A) (A) (A) (A) (A) (A) (A) (A) (A)
                 (A) (A) (A) (A) (A) (A) (A) (A) (A) (A) (A) (A)
                 (A) (A) (A) (A) (A) (A) (A) (A) (A) (A) (A) (A)
                 (A) (A) (A) (A) (A) (A) (A) (A) (A) (A) (A) (A)
                 (A) (A) (A) (A) (A) (A) (A) (A) (A) (A) (A) (A)
                 (A) (A) (A) (A) (A)
 The electronic state is 1-A.
 Alpha  occ. eigenvalues -- -101.56690-101.55514 -19.18000 -10.26773 -10.26376
 Alpha  occ. eigenvalues --  -10.25909 -10.21682 -10.21657 -10.20936 -10.18032
 Alpha  occ. eigenvalues --   -9.48286  -9.47123  -7.24683  -7.23715  -7.23687
 Alpha  occ. eigenvalues --   -7.23525  -7.22546  -7.22521  -1.04683  -0.90602
 Alpha  occ. eigenvalues --   -0.87682  -0.83677  -0.77241  -0.73467  -0.70027
 Alpha  occ. eigenvalues --   -0.61795  -0.59750  -0.55026  -0.50847  -0.48155
 Alpha  occ. eigenvalues --   -0.45648  -0.44172  -0.42840  -0.41104  -0.40782
 Alpha  occ. eigenvalues --   -0.39745  -0.38014  -0.37507  -0.36085  -0.34292
 Alpha  occ. eigenvalues --   -0.33149  -0.31825  -0.31077  -0.25674  -0.23482
 Alpha virt. eigenvalues --   -0.02112  -0.01076   0.00017   0.04283   0.08032
 Alpha virt. eigenvalues --    0.12463   0.13337   0.14972   0.15874   0.17654
 Alpha virt. eigenvalues --    0.19065   0.21043   0.22744   0.27040   0.28289
 Alpha virt. eigenvalues --    0.29506   0.31711   0.37587   0.39371   0.40230
 Alpha virt. eigenvalues --    0.40269   0.42769   0.43048   0.44301   0.47053
 Alpha virt. eigenvalues --    0.49684   0.51147   0.51383   0.51850   0.54514
 Alpha virt. eigenvalues --    0.55058   0.58575   0.59881   0.60219   0.61169
 Alpha virt. eigenvalues --    0.62965   0.64090   0.67576   0.70548   0.73242
 Alpha virt. eigenvalues --    0.74463   0.75911   0.76754   0.78580   0.81827
 Alpha virt. eigenvalues --    0.83171   0.83307   0.84874   0.86015   0.86748
 Alpha virt. eigenvalues --    0.88193   0.89357   0.90190   0.91535   0.92030
 Alpha virt. eigenvalues --    0.93927   0.95907   0.97959   1.00648   1.01263
 Alpha virt. eigenvalues --    1.05127   1.06034   1.09543   1.11348   1.14019
 Alpha virt. eigenvalues --    1.14783   1.21047   1.22693   1.24336   1.33478
 Alpha virt. eigenvalues --    1.33793   1.35640   1.36290   1.39021   1.43515
 Alpha virt. eigenvalues --    1.45558   1.46028   1.50127   1.54443   1.66881
 Alpha virt. eigenvalues --    1.74068   1.76583   1.78402   1.81242   1.83645
 Alpha virt. eigenvalues --    1.84352   1.88756   1.91542   1.95253   1.96595
 Alpha virt. eigenvalues --    1.99509   2.05671   2.09013   2.14007   2.15616
 Alpha virt. eigenvalues --    2.21193   2.24791   2.25723   2.27319   2.29320
 Alpha virt. eigenvalues --    2.32569   2.36914   2.44297   2.48706   2.49930
 Alpha virt. eigenvalues --    2.60006   2.64464   2.66311   2.72126   2.74517
 Alpha virt. eigenvalues --    2.77990   2.81235   2.98550   3.09287   3.33826
 Alpha virt. eigenvalues --    3.94019   4.04192   4.06880   4.12370   4.23088
 Alpha virt. eigenvalues --    4.27383   4.30651   4.38308   4.39789   4.71337
          Condensed to atoms (all electrons):
               1          2          3          4          5          6
     1  C    5.006877   0.486681  -0.022504  -0.030516  -0.039106   0.521021
     2  C    0.486681   5.237084   0.403915  -0.064808  -0.047124  -0.025865
     3  C   -0.022504   0.403915   4.706503   0.508482  -0.014358  -0.039675
     4  C   -0.030516  -0.064808   0.508482   4.753979   0.530876  -0.019800
     5  C   -0.039106  -0.047124  -0.014358   0.530876   5.035848   0.492357
     6  C    0.521021  -0.025865  -0.039675  -0.019800   0.492357   4.966297
     7  H    0.356370  -0.032254   0.002771   0.000644   0.003965  -0.033633
     8  H    0.004454   0.000266   0.005120  -0.035306   0.360043  -0.044543
     9  C    0.000053   0.009018  -0.047775   0.349311  -0.062917   0.006473
    10  H    0.000039  -0.000223  -0.002276  -0.024460  -0.001073  -0.000181
    11  H   -0.000009   0.000304  -0.006119  -0.026453   0.002678  -0.000167
    12  H    0.000012  -0.000162   0.003674  -0.028921  -0.003167   0.000154
    13  O    0.003564  -0.078323   0.304299  -0.057709   0.003559   0.000029
    14  H    0.000358  -0.009625  -0.020629   0.004979  -0.000092  -0.000032
    15  Cl  -0.062936   0.004005   0.000711   0.003399  -0.061088   0.231773
    16  Cl  -0.061172   0.219506  -0.062212   0.004115   0.000616   0.003497
               7          8          9         10         11         12
     1  C    0.356370   0.004454   0.000053   0.000039  -0.000009   0.000012
     2  C   -0.032254   0.000266   0.009018  -0.000223   0.000304  -0.000162
     3  C    0.002771   0.005120  -0.047775  -0.002276  -0.006119   0.003674
     4  C    0.000644  -0.035306   0.349311  -0.024460  -0.026453  -0.028921
     5  C    0.003965   0.360043  -0.062917  -0.001073   0.002678  -0.003167
     6  C   -0.033633  -0.044543   0.006473  -0.000181  -0.000167   0.000154
     7  H    0.515876  -0.000155   0.000005   0.000000  -0.000000   0.000000
     8  H   -0.000155   0.543036  -0.009124   0.000550   0.000103   0.004444
     9  C    0.000005  -0.009124   5.160152   0.369785   0.373913   0.368529
    10  H    0.000000   0.000550   0.369785   0.527330  -0.026339  -0.027599
    11  H   -0.000000   0.000103   0.373913  -0.026339   0.515642  -0.026344
    12  H    0.000000   0.004444   0.368529  -0.027599  -0.026344   0.538515
    13  O   -0.000044  -0.000034  -0.004279   0.000878   0.005789   0.000322
    14  H   -0.000002   0.000003   0.000045   0.000032  -0.000237  -0.000007
    15  Cl  -0.000539   0.000338  -0.000170   0.000003   0.000002  -0.000007
    16  Cl  -0.000788   0.000011  -0.000183   0.000002   0.000006   0.000002
              13         14         15         16
     1  C    0.003564   0.000358  -0.062936  -0.061172
     2  C   -0.078323  -0.009625   0.004005   0.219506
     3  C    0.304299  -0.020629   0.000711  -0.062212
     4  C   -0.057709   0.004979   0.003399   0.004115
     5  C    0.003559  -0.000092  -0.061088   0.000616
     6  C    0.000029  -0.000032   0.231773   0.003497
     7  H   -0.000044  -0.000002  -0.000539  -0.000788
     8  H   -0.000034   0.000003   0.000338   0.000011
     9  C   -0.004279   0.000045  -0.000170  -0.000183
    10  H    0.000878   0.000032   0.000003   0.000002
    11  H    0.005789  -0.000237   0.000002   0.000006
    12  H    0.000322  -0.000007  -0.000007   0.000002
    13  O    8.251213   0.238177   0.000001  -0.002526
    14  H    0.238177   0.341753  -0.000000   0.017913
    15  Cl   0.000001  -0.000000  16.909359  -0.000154
    16  Cl  -0.002526   0.017913  -0.000154  16.894139
 Mulliken charges:
               1
     1  C   -0.163187
     2  C   -0.102393
     3  C    0.280073
     4  C    0.132188
     5  C   -0.201016
     6  C   -0.057704
     7  H    0.187784
     8  H    0.170795
     9  C   -0.512836
    10  H    0.183533
    11  H    0.187230
    12  H    0.170553
    13  O   -0.664915
    14  H    0.427363
    15  Cl  -0.024697
    16  Cl  -0.012772
 Sum of Mulliken charges =  -0.00000
 Mulliken charges with hydrogens summed into heavy atoms:
               1
     1  C    0.024596
     2  C   -0.102393
     3  C    0.280073
     4  C    0.132188
     5  C   -0.030221
     6  C   -0.057704
     9  C    0.028481
    13  O   -0.237552
    15  Cl  -0.024697
    16  Cl  -0.012772
 Electronic spatial extent (au):  <R**2>=           2212.8140
 Charge=             -0.0000 electrons
 Dipole moment (field-independent basis, Debye):
    X=              0.7353    Y=              1.1384    Z=              0.8059  Tot=              1.5768
 Quadrupole moment (field-independent basis, Debye-Ang):
   XX=            -72.9232   YY=            -66.6282   ZZ=            -72.5354
   XY=             -2.8275   XZ=              2.7211   YZ=              0.2667
 Traceless Quadrupole moment (field-independent basis, Debye-Ang):
   XX=             -2.2276   YY=              4.0674   ZZ=             -1.8398
   XY=             -2.8275   XZ=              2.7211   YZ=              0.2667
 Octapole moment (field-independent basis, Debye-Ang**2):
  XXX=             30.5434  YYY=              4.4629  ZZZ=              1.1993  XYY=             -6.8742
  XXY=             -3.3893  XXZ=              8.3505  XZZ=              5.0201  YZZ=             -0.1760
  YYZ=             -0.1394  XYZ=              0.9450
 Hexadecapole moment (field-independent basis, Debye-Ang**3):
 XXXX=          -1582.8056 YYYY=          -1038.9951 ZZZZ=            -81.3801 XXXY=            -26.7859
 XXXZ=             27.9009 YYYX=             -7.5970 YYYZ=              0.0211 ZZZX=              2.2562
 ZZZY=              2.3375 XXYY=           -456.1665 XXZZ=           -291.4264 YYZZ=           -195.4602
 XXYZ=              1.3718 YYXZ=              0.5906 ZZXY=              2.8567
 N-N= 6.503223746631D+02 E-N=-4.290751820187D+03  KE= 1.259796523767D+03
 D1PCM: PCM CHGder 1st derivatives, ID1Alg=3 FixD1E=F DoIter=F DoCFld=F I1PDM=0.
 Calling FoFJK, ICntrl=      2127 FMM=F ISym2X=0 I1Cent= 0 IOpClX= 0 NMat=1 NMatS=1 NMatT=0.
 ***** Axes restored to original set *****
 -------------------------------------------------------------------
 Center     Atomic                   Forces (Hartrees/Bohr)
 Number     Number              X              Y              Z
 -------------------------------------------------------------------
      1        6          -0.010825535   -0.015775314    0.000300535
      2        6          -0.009798045    0.002704384   -0.000309614
      3        6           0.043748143   -0.012555909    0.004750286
      4        6           0.010704149    0.021092932   -0.002347740
      5        6          -0.007857489    0.003891028   -0.001151096
      6        6           0.008175827    0.000146464    0.000452542
      7        1           0.005585154    0.008346304   -0.000097296
      8        1           0.005585211   -0.007987925   -0.000108325
      9        6          -0.015834868   -0.031500768   -0.003048320
     10        1           0.005408327    0.007035824    0.016278208
     11        1           0.014561582    0.000963139   -0.006237332
     12        1          -0.008262708    0.012941086   -0.006260038
     13        8          -0.040963113    0.022059833   -0.006049311
     14        1          -0.000009602   -0.011858094    0.003574806
     15       17           0.001267255   -0.000845892   -0.000009971
     16       17          -0.001484289    0.001342909    0.000262666
 -------------------------------------------------------------------
 Cartesian Forces:  Max     0.043748143 RMS     0.012872527

 GradGradGradGradGradGradGradGradGradGradGradGradGradGradGradGradGradGrad
 Berny optimization.
 FormGI is forming the generalized inverse of G from B-inverse, IUseBI=4.
 Internal  Forces:  Max     0.040976094 RMS     0.007012841
 Search for a local minimum.
 Step number   1 out of a maximum of   83
 All quantities printed in internal units (Hartrees-Bohrs-Radians)
 Mixed Optimization -- RFO/linear search
 Second derivative matrix not updated -- first step.
 ITU=  0
     Eigenvalues ---    0.00237   0.01295   0.01387   0.01998   0.02152
     Eigenvalues ---    0.02154   0.02155   0.02155   0.02155   0.02156
     Eigenvalues ---    0.02157   0.07243   0.07243   0.16000   0.16000
     Eigenvalues ---    0.16000   0.16000   0.16000   0.16000   0.23479
     Eigenvalues ---    0.23493   0.25000   0.25000   0.25000   0.25000
     Eigenvalues ---    0.25000   0.28519   0.29539   0.29539   0.33709
     Eigenvalues ---    0.33725   0.37230   0.37230   0.37230   0.40989
     Eigenvalues ---    0.42403   0.42564   0.46412   0.46453   0.46466
     Eigenvalues ---    0.46497   0.55473
 RFO step:  Lambda=-1.05571566D-02 EMin= 2.36824294D-03
 Linear search not attempted -- first point.
 Iteration  1 RMS(Cart)=  0.03262453 RMS(Int)=  0.00123180
 Iteration  2 RMS(Cart)=  0.00107332 RMS(Int)=  0.00015041
 Iteration  3 RMS(Cart)=  0.00000384 RMS(Int)=  0.00015037
 Iteration  4 RMS(Cart)=  0.00000000 RMS(Int)=  0.00015037
 Variable       Old X    -DE/DX   Delta X   Delta X   Delta X     New X
                                 (Linear)    (Quad)   (Total)
    R1        2.63647  -0.00316   0.00000  -0.00656  -0.00657   2.62990
    R2        2.63584  -0.00346   0.00000  -0.00761  -0.00763   2.62821
    R3        2.07796  -0.01002   0.00000  -0.02881  -0.02881   2.04915
    R4        2.63562   0.00625   0.00000   0.01357   0.01358   2.64920
    R5        3.32592  -0.00191   0.00000  -0.00623  -0.00623   3.31969
    R6        2.63697   0.00155   0.00000   0.00361   0.00363   2.64060
    R7        2.70231  -0.04098   0.00000  -0.09746  -0.09746   2.60485
    R8        2.63584   0.00124   0.00000   0.00251   0.00251   2.63835
    R9        2.91018  -0.01121   0.00000  -0.03790  -0.03790   2.87228
   R10        2.63643   0.00083   0.00000   0.00131   0.00130   2.63773
   R11        2.07825  -0.00971   0.00000  -0.02793  -0.02793   2.05032
   R12        3.32592  -0.00127   0.00000  -0.00414  -0.00414   3.32178
   R13        2.02201   0.01830   0.00000   0.04779   0.04779   2.06980
   R14        2.02201   0.01554   0.00000   0.04058   0.04058   2.06259
   R15        2.02201   0.01646   0.00000   0.04300   0.04300   2.06500
   R16        1.81414   0.01134   0.00000   0.02005   0.02005   1.83419
    A1        2.09437  -0.00670   0.00000  -0.02912  -0.02913   2.06524
    A2        2.09435   0.00266   0.00000   0.01055   0.01055   2.10490
    A3        2.09447   0.00403   0.00000   0.01857   0.01857   2.11304
    A4        2.09455   0.00461   0.00000   0.01904   0.01905   2.11360
    A5        2.09406  -0.00334   0.00000  -0.01349  -0.01350   2.08056
    A6        2.09458  -0.00127   0.00000  -0.00557  -0.00559   2.08899
    A7        2.09429   0.00055   0.00000   0.00392   0.00382   2.09811
    A8        2.09462   0.00991   0.00000   0.03711   0.03692   2.13154
    A9        2.09427  -0.01045   0.00000  -0.04103  -0.04118   2.05309
   A10        2.09429  -0.00612   0.00000  -0.02266  -0.02263   2.07166
   A11        2.09407   0.00154   0.00000   0.00551   0.00548   2.09955
   A12        2.09483   0.00458   0.00000   0.01715   0.01712   2.11195
   A13        2.09448   0.00219   0.00000   0.00885   0.00885   2.10333
   A14        2.09459  -0.00197   0.00000  -0.00957  -0.00958   2.08501
   A15        2.09411  -0.00022   0.00000   0.00072   0.00071   2.09482
   A16        2.09440   0.00547   0.00000   0.01996   0.01995   2.11434
   A17        2.09453  -0.00413   0.00000  -0.01534  -0.01533   2.07920
   A18        2.09426  -0.00134   0.00000  -0.00463  -0.00462   2.08963
   A19        1.91063   0.00279   0.00000   0.01457   0.01448   1.92511
   A20        1.91063   0.00364   0.00000   0.02222   0.02206   1.93269
   A21        1.91063   0.00132   0.00000   0.00864   0.00852   1.91915
   A22        1.91063  -0.00358   0.00000  -0.02285  -0.02297   1.88766
   A23        1.91063  -0.00242   0.00000  -0.01595  -0.01600   1.89464
   A24        1.91063  -0.00175   0.00000  -0.00662  -0.00680   1.90383
   A25        1.91114  -0.00730   0.00000  -0.04282  -0.04282   1.86832
    D1        0.00056   0.00033   0.00000   0.01052   0.01062   0.01119
    D2        3.14078   0.00007   0.00000   0.00205   0.00226  -3.14015
    D3       -3.14112   0.00016   0.00000   0.00521   0.00522  -3.13591
    D4       -0.00091  -0.00011   0.00000  -0.00326  -0.00315  -0.00405
    D5        0.00026  -0.00001   0.00000   0.00010   0.00003   0.00029
    D6        3.14140  -0.00014   0.00000  -0.00398  -0.00405   3.13736
    D7       -3.14124   0.00017   0.00000   0.00541   0.00547  -3.13577
    D8       -0.00010   0.00004   0.00000   0.00133   0.00139   0.00129
    D9       -0.00099  -0.00038   0.00000  -0.01289  -0.01300  -0.01400
   D10        3.14093   0.00059   0.00000   0.01893   0.01951  -3.12275
   D11       -3.14120  -0.00011   0.00000  -0.00441  -0.00460   3.13738
   D12        0.00072   0.00086   0.00000   0.02741   0.02792   0.02863
   D13        0.00060   0.00010   0.00000   0.00461   0.00442   0.00501
   D14       -3.14153  -0.00009   0.00000  -0.00295  -0.00312   3.13853
   D15       -3.14132  -0.00087   0.00000  -0.02719  -0.02665   3.11521
   D16       -0.00026  -0.00105   0.00000  -0.03475  -0.03419  -0.03445
   D17       -0.53360   0.00205   0.00000   0.09174   0.09180  -0.44180
   D18        2.60832   0.00301   0.00000   0.12356   0.12351   2.73183
   D19        0.00023   0.00023   0.00000   0.00599   0.00609   0.00632
   D20       -3.14158   0.00002   0.00000  -0.00040  -0.00037   3.14123
   D21       -3.14083   0.00041   0.00000   0.01357   0.01368  -3.12715
   D22        0.00054   0.00020   0.00000   0.00718   0.00722   0.00776
   D23       -1.54637   0.00036   0.00000   0.02451   0.02455  -1.52182
   D24        0.54803  -0.00009   0.00000   0.01905   0.01910   0.56713
   D25        2.64242   0.00081   0.00000   0.02983   0.02996   2.67238
   D26        1.59469   0.00018   0.00000   0.01693   0.01683   1.61152
   D27       -2.59410  -0.00027   0.00000   0.01147   0.01138  -2.58272
   D28       -0.49970   0.00062   0.00000   0.02225   0.02223  -0.47747
   D29       -0.00066  -0.00028   0.00000  -0.00836  -0.00845  -0.00911
   D30        3.14138  -0.00015   0.00000  -0.00428  -0.00434   3.13704
   D31        3.14116  -0.00006   0.00000  -0.00197  -0.00195   3.13921
   D32        0.00001   0.00007   0.00000   0.00211   0.00216   0.00217
         Item               Value     Threshold  Converged?
 Maximum Force            0.040976     0.000450     NO 
 RMS     Force            0.007013     0.000300     NO 
 Maximum Displacement     0.145504     0.001800     NO 
 RMS     Displacement     0.033157     0.001200     NO 
 Predicted change in Energy=-5.592291D-03
 GradGradGradGradGradGradGradGradGradGradGradGradGradGradGradGradGradGrad

                          Input orientation:                          
 ---------------------------------------------------------------------
 Center     Atomic      Atomic             Coordinates (Angstroms)
 Number     Number       Type             X           Y           Z
 ---------------------------------------------------------------------
      1          6           0       -0.063982   -0.033579    0.010203
      2          6           0        1.327560   -0.014235    0.014481
      3          6           0        2.034930    1.196109    0.017162
      4          6           0        1.347352    2.412443   -0.001336
      5          6           0       -0.048593    2.393285   -0.016226
      6          6           0       -0.740872    1.181281   -0.005059
      7          1           0       -0.602981   -0.974491    0.013460
      8          1           0       -0.595035    3.330508   -0.030314
      9          6           0        2.112332    3.725833    0.005548
     10          1           0        2.328760    4.034153    1.034020
     11          1           0        3.060408    3.623618   -0.525505
     12          1           0        1.516883    4.506839   -0.473598
     13          8           0        3.412541    1.240103   -0.000591
     14          1           0        3.728812    0.406845    0.383782
     15         17           0       -2.498640    1.181334   -0.017234
     16         17           0        2.205955   -1.535466    0.031471
 ---------------------------------------------------------------------
                    Distance matrix (angstroms):
                    1          2          3          4          5
     1  C    0.000000
     2  C    1.391683   0.000000
     3  C    2.432615   1.401896   0.000000
     4  C    2.824007   2.426810   1.397346   0.000000
     5  C    2.427057   2.773246   2.403209   1.396155   0.000000
     6  C    1.390791   2.389153   2.775931   2.424140   1.395825
     7  H    1.084364   2.156173   3.416152   3.908367   3.413230
     8  H    3.405987   3.858197   3.387423   2.148616   1.084982
     9  C    4.343908   3.821525   2.530934   1.519946   2.538849
    10  H    4.829064   4.293170   3.028998   2.159877   3.073641
    11  H    4.839823   4.065504   2.690519   2.162467   3.382155
    12  H    4.832038   4.551283   3.386761   2.153664   2.669647
    13  O    3.702512   2.433257   1.378428   2.374740   3.648222
    14  H    3.836511   2.465705   1.904359   3.137210   4.286576
    15  Cl   2.721089   4.008765   4.533725   4.038258   2.733414
    16  Cl   2.721897   1.756704   2.736960   4.040328   4.529938
                    6          7          8          9         10
     6  C    0.000000
     7  H    2.160256   0.000000
     8  H    2.154318   4.305229   0.000000
     9  C    3.823039   5.428262   2.736311   0.000000
    10  H    4.317547   5.892636   3.190062   1.095289   0.000000
    11  H    4.548144   5.903686   3.700458   1.091473   1.770865
    12  H    4.046767   5.897120   2.457733   1.092754   1.776369
    13  O    4.153833   4.585743   4.520104   2.805251   3.170444
    14  H    4.552914   4.561760   5.235927   3.711030   3.942121
    15  Cl   1.757809   2.870896   2.871034   5.266503   5.705041
    16  Cl   4.008221   2.864461   5.614896   5.262195   5.660463
                   11         12         13         14         15
    11  H    0.000000
    12  H    1.779113   0.000000
    13  O    2.465903   3.806418   0.000000
    14  H    3.408987   4.736842   0.970612   0.000000
    15  Cl   6.093120   5.233706   5.911497   6.288227   0.000000
    16  Cl   5.258941   6.102406   3.026658   2.493148   5.432916
                   16
    16  Cl   0.000000
 Stoichiometry    C7H6Cl2O
 Framework group  C1[X(C7H6Cl2O)]
 Deg. of freedom    42
 Full point group                 C1      NOp   1
 Largest Abelian subgroup         C1      NOp   1
 Largest concise Abelian subgroup C1      NOp   1
                         Standard orientation:                         
 ---------------------------------------------------------------------
 Center     Atomic      Atomic             Coordinates (Angstroms)
 Number     Number       Type             X           Y           Z
 ---------------------------------------------------------------------
      1          6           0       -0.518062   -1.153396    0.002459
      2          6           0        0.814691   -0.752786   -0.005551
      3          6           0        1.162662    0.605231   -0.001346
      4          6           0        0.167475    1.586128   -0.005836
      5          6           0       -1.169672    1.184529   -0.008395
      6          6           0       -1.502533   -0.170994    0.001101
      7          1           0       -0.778030   -2.206134    0.004434
      8          1           0       -1.952493    1.935771   -0.011541
      9          6           0        0.542599    3.059031    0.002726
     10          1           0        0.676723    3.411037    1.031200
     11          1           0        1.476765    3.223029   -0.537414
     12          1           0       -0.249281    3.648362   -0.466023
     13          8           0        2.475025    1.025802   -0.031102
     14          1           0        3.011826    0.309942    0.345032
     15         17           0       -3.192831   -0.653463    0.004608
     16         17           0        2.077027   -1.974471   -0.006245
 ---------------------------------------------------------------------
 Rotational constants (GHZ):           1.2636877           0.7237785           0.4616439
 Standard basis: 6-31G(d) (6D, 7F)
 There are   170 symmetry adapted cartesian basis functions of A   symmetry.
 There are   170 symmetry adapted basis functions of A   symmetry.
   170 basis functions,   352 primitive gaussians,   170 cartesian basis functions
    45 alpha electrons       45 beta electrons
       nuclear repulsion energy       653.0080519902 Hartrees.
 NAtoms=   16 NActive=   16 NUniq=   16 SFac= 1.00D+00 NAtFMM=   60 NAOKFM=F Big=F
 Integral buffers will be    131072 words long.
 Raffenetti 2 integral format.
 Two-electron integral symmetry is turned on.
 ------------------------------------------------------------------------------
 Polarizable Continuum Model (PCM)
 =================================
 Model                : PCM.
 Atomic radii         : SMD-Coulomb.
 Polarization charges : Total charges.
 Charge compensation  : None.
 Solution method      : On-the-fly selection.
 Cavity type          : VdW (van der Waals Surface) (Alpha=1.000).
 Cavity algorithm     : GePol (No added spheres)
                        Default sphere list used, NSphG=   16.
                        Lebedev-Laikov grids with approx.  5.0 points / Ang**2.
                        Smoothing algorithm: York/Karplus (Gamma=1.0000).
                        Polarization charges: spherical gaussians, with
                                              point-specific exponents (IZeta= 3).
                        Self-potential: point-specific (ISelfS= 7).
                        Self-field    : sphere-specific E.n sum rule (ISelfD= 2).
 1st derivatives      : Analytical E(r).r(x)/FMM algorithm (CHGder, D1EAlg=3).
                        Cavity 1st derivative terms included.
 Solvent              : Toluene, Eps=   2.374100 Eps(inf)=   2.238315
 ------------------------------------------------------------------------------
 Spheres list:
 ISph  on   Nord     Re0    Alpha      Xe            Ye            Ze
    1   C      1    1.8500  1.000     -0.518062     -1.153396      0.002459
    2   C      2    1.8500  1.000      0.814691     -0.752786     -0.005551
    3   C      3    1.8500  1.000      1.162662      0.605231     -0.001346
    4   C      4    1.8500  1.000      0.167475      1.586128     -0.005836
    5   C      5    1.8500  1.000     -1.169672      1.184529     -0.008395
    6   C      6    1.8500  1.000     -1.502533     -0.170994      0.001101
    7   H      7    1.2000  1.000     -0.778030     -2.206134      0.004434
    8   H      8    1.2000  1.000     -1.952493      1.935771     -0.011541
    9   C      9    1.8500  1.000      0.542599      3.059031      0.002726
   10   H     10    1.2000  1.000      0.676723      3.411037      1.031200
   11   H     11    1.2000  1.000      1.476765      3.223029     -0.537414
   12   H     12    1.2000  1.000     -0.249281      3.648362     -0.466023
   13   O     13    2.2940  1.000      2.475025      1.025802     -0.031102
   14   H     14    1.2000  1.000      3.011826      0.309942      0.345032
   15  Cl     15    2.3800  1.000     -3.192831     -0.653463      0.004608
   16  Cl     16    2.3800  1.000      2.077027     -1.974471     -0.006245
 ------------------------------------------------------------------------------
 ------------------------------------------------------------------------------
 Atomic radii for non-electrostatic terms: SMD-CDS.
 ------------------------------------------------------------------------------
 Nuclear repulsion after PCM non-electrostatic terms =      653.0005954445 Hartrees.
 One-electron integrals computed using PRISM.
 NBasis=   170 RedAO= T EigKep=  3.89D-04  NBF=   170
 NBsUse=   170 1.00D-06 EigRej= -1.00D+00 NBFU=   170
 Initial guess from the checkpoint file:  "ClClbz.chk"
 B after Tr=    -0.000000   -0.000000    0.000000
         Rot=    0.999993   -0.000149   -0.000048    0.003654 Ang=  -0.42 deg.
 ExpMin= 1.43D-01 ExpMax= 2.52D+04 ExpMxC= 3.78D+03 IAcc=3 IRadAn=         5 AccDes= 0.00D+00
 Harris functional with IExCor=  402 and IRadAn=       5 diagonalized for initial guess.
 HarFok:  IExCor=  402 AccDes= 0.00D+00 IRadAn=         5 IDoV= 1 UseB2=F ITyADJ=14
 ICtDFT=  3500011 ScaDFX=  1.000000  1.000000  1.000000  1.000000
 FoFCou: FMM=F IPFlag=           0 FMFlag=      100000 FMFlg1=           0
         NFxFlg=           0 DoJE=T BraDBF=F KetDBF=T FulRan=T
         wScrn=  0.000000 ICntrl=       500 IOpCl=  0 I1Cent=   200000004 NGrid=           0
         NMat0=    1 NMatS0=      1 NMatT0=    0 NMatD0=    1 NMtDS0=    0 NMtDT0=    0
 Petite list used in FoFCou.
 Requested convergence on RMS density matrix=1.00D-08 within 128 cycles.
 Requested convergence on MAX density matrix=1.00D-06.
 Requested convergence on             energy=1.00D-06.
 No special actions if energy rises.
 Inv3:  Mode=1 IEnd=     8246892.
 Iteration    1 A*A^-1 deviation from unit magnitude is 4.22D-15 for   1653.
 Iteration    1 A*A^-1 deviation from orthogonality  is 1.67D-15 for   1131    179.
 Iteration    1 A^-1*A deviation from unit magnitude is 4.00D-15 for   1653.
 Iteration    1 A^-1*A deviation from orthogonality  is 1.95D-15 for   1609    630.
 Error on total polarization charges =  0.01223
 SCF Done:  E(RB3LYP) =  -1265.98339203     A.U. after   11 cycles
            NFock= 11  Conv=0.93D-08     -V/T= 2.0048
 SMD-CDS (non-electrostatic) energy       (kcal/mol) =      -4.68
 (included in total energy above)
 D1PCM: PCM CHGder 1st derivatives, ID1Alg=3 FixD1E=F DoIter=F DoCFld=F I1PDM=0.
 Calling FoFJK, ICntrl=      2127 FMM=F ISym2X=0 I1Cent= 0 IOpClX= 0 NMat=1 NMatS=1 NMatT=0.
 ***** Axes restored to original set *****
 -------------------------------------------------------------------
 Center     Atomic                   Forces (Hartrees/Bohr)
 Number     Number              X              Y              Z
 -------------------------------------------------------------------
      1        6          -0.001994720   -0.002064274    0.000262774
      2        6          -0.004124359    0.004021229    0.000793420
      3        6           0.017193661   -0.004297152   -0.001452542
      4        6          -0.001605743    0.008675154   -0.001551608
      5        6          -0.001749699   -0.001407176   -0.000132327
      6        6           0.003203115    0.002070036   -0.000127386
      7        1           0.000480134    0.000299042    0.000008982
      8        1          -0.000398083    0.000021888   -0.000128698
      9        6          -0.004708858   -0.008308009   -0.001178063
     10        1           0.001374549    0.001333050    0.000671983
     11        1           0.000774344    0.001460657    0.000007836
     12        1           0.000285200    0.001597928    0.000545281
     13        8          -0.013313077   -0.000063926    0.004573276
     14        1           0.004332549   -0.002694633   -0.002453774
     15       17          -0.001775293    0.000108453   -0.000002728
     16       17           0.002026278   -0.000752266    0.000163574
 -------------------------------------------------------------------
 Cartesian Forces:  Max     0.017193661 RMS     0.004080227

 GradGradGradGradGradGradGradGradGradGradGradGradGradGradGradGradGradGrad
 Berny optimization.
 Using GEDIIS/GDIIS optimizer.
 FormGI is forming the generalized inverse of G from B-inverse, IUseBI=4.
 Internal  Forces:  Max     0.009095124 RMS     0.001973300
 Search for a local minimum.
 Step number   2 out of a maximum of   83
 All quantities printed in internal units (Hartrees-Bohrs-Radians)
 Mixed Optimization -- RFO/linear search
 Update second derivatives using D2CorX and points    1    2
 DE= -6.28D-03 DEPred=-5.59D-03 R= 1.12D+00
 TightC=F SS=  1.41D+00  RLast= 2.44D-01 DXNew= 5.0454D-01 7.3132D-01
 Trust test= 1.12D+00 RLast= 2.44D-01 DXMaxT set to 5.05D-01
 ITU=  1  0
 Use linear search instead of GDIIS.
     Eigenvalues ---    0.00235   0.01185   0.01370   0.02018   0.02154
     Eigenvalues ---    0.02154   0.02155   0.02155   0.02156   0.02157
     Eigenvalues ---    0.02162   0.07023   0.07106   0.15269   0.16000
     Eigenvalues ---    0.16000   0.16000   0.16000   0.16799   0.22723
     Eigenvalues ---    0.23490   0.24590   0.24998   0.24999   0.25000
     Eigenvalues ---    0.26360   0.27643   0.29538   0.29645   0.33697
     Eigenvalues ---    0.34086   0.36299   0.37230   0.37266   0.38850
     Eigenvalues ---    0.42401   0.42833   0.46426   0.46453   0.46486
     Eigenvalues ---    0.48592   0.55224
 RFO step:  Lambda=-2.37181798D-03 EMin= 2.35480776D-03
 Quartic linear search produced a step of  0.19199.
 Iteration  1 RMS(Cart)=  0.04648392 RMS(Int)=  0.00491898
 Iteration  2 RMS(Cart)=  0.00507975 RMS(Int)=  0.00008387
 Iteration  3 RMS(Cart)=  0.00007397 RMS(Int)=  0.00004311
 Iteration  4 RMS(Cart)=  0.00000001 RMS(Int)=  0.00004311
 Variable       Old X    -DE/DX   Delta X   Delta X   Delta X     New X
                                 (Linear)    (Quad)   (Total)
    R1        2.62990   0.00101  -0.00126   0.00248   0.00122   2.63112
    R2        2.62821   0.00047  -0.00147   0.00080  -0.00067   2.62754
    R3        2.04915  -0.00050  -0.00553  -0.00139  -0.00692   2.04223
    R4        2.64920  -0.00046   0.00261  -0.00094   0.00168   2.65088
    R5        3.31969   0.00166  -0.00120   0.00666   0.00547   3.32516
    R6        2.64060   0.00665   0.00070   0.01721   0.01791   2.65851
    R7        2.60485  -0.00910  -0.01871  -0.02504  -0.04375   2.56110
    R8        2.63835   0.00125   0.00048   0.00325   0.00373   2.64208
    R9        2.87228  -0.00453  -0.00728  -0.01801  -0.02528   2.84700
   R10        2.63773  -0.00162   0.00025  -0.00443  -0.00420   2.63353
   R11        2.05032   0.00022  -0.00536   0.00110  -0.00426   2.04606
   R12        3.32178   0.00178  -0.00079   0.00708   0.00628   3.32806
   R13        2.06980   0.00127   0.00917   0.00350   0.01267   2.08247
   R14        2.06259   0.00054   0.00779   0.00127   0.00906   2.07164
   R15        2.06500   0.00074   0.00826   0.00189   0.01014   2.07515
   R16        1.83419   0.00276   0.00385   0.00569   0.00954   1.84373
    A1        2.06524  -0.00074  -0.00559  -0.00459  -0.01018   2.05506
    A2        2.10490   0.00010   0.00203   0.00046   0.00249   2.10738
    A3        2.11304   0.00063   0.00357   0.00413   0.00769   2.12073
    A4        2.11360   0.00255   0.00366   0.01196   0.01562   2.12922
    A5        2.08056   0.00100  -0.00259   0.00466   0.00203   2.08259
    A6        2.08899  -0.00355  -0.00107  -0.01669  -0.01779   2.07120
    A7        2.09811  -0.00318   0.00073  -0.01331  -0.01258   2.08553
    A8        2.13154   0.00102   0.00709   0.00354   0.01058   2.14211
    A9        2.05309   0.00216  -0.00791   0.01009   0.00214   2.05523
   A10        2.07166   0.00017  -0.00434   0.00231  -0.00203   2.06963
   A11        2.09955  -0.00001   0.00105  -0.00072   0.00032   2.09987
   A12        2.11195  -0.00016   0.00329  -0.00163   0.00165   2.11360
   A13        2.10333   0.00046   0.00170   0.00191   0.00359   2.10693
   A14        2.08501   0.00011  -0.00184   0.00161  -0.00022   2.08479
   A15        2.09482  -0.00056   0.00014  -0.00351  -0.00336   2.09146
   A16        2.11434   0.00074   0.00383   0.00172   0.00553   2.11987
   A17        2.07920  -0.00017  -0.00294   0.00014  -0.00279   2.07641
   A18        2.08963  -0.00056  -0.00089  -0.00185  -0.00273   2.08690
   A19        1.92511   0.00142   0.00278   0.00897   0.01167   1.93678
   A20        1.93269   0.00166   0.00423   0.01194   0.01604   1.94873
   A21        1.91915   0.00134   0.00164   0.01002   0.01154   1.93069
   A22        1.88766  -0.00174  -0.00441  -0.01303  -0.01753   1.87013
   A23        1.89464  -0.00155  -0.00307  -0.01169  -0.01482   1.87982
   A24        1.90383  -0.00127  -0.00131  -0.00721  -0.00869   1.89514
   A25        1.86832   0.00665  -0.00822   0.04924   0.04102   1.90934
    D1        0.01119   0.00010   0.00204   0.00238   0.00445   0.01564
    D2       -3.14015  -0.00013   0.00043  -0.00657  -0.00616   3.13688
    D3       -3.13591   0.00009   0.00100   0.00298   0.00402  -3.13189
    D4       -0.00405  -0.00013  -0.00060  -0.00598  -0.00660  -0.01065
    D5        0.00029  -0.00007   0.00001  -0.00365  -0.00364  -0.00335
    D6        3.13736  -0.00002  -0.00078  -0.00013  -0.00090   3.13645
    D7       -3.13577  -0.00006   0.00105  -0.00424  -0.00318  -3.13896
    D8        0.00129  -0.00001   0.00027  -0.00072  -0.00044   0.00085
    D9       -0.01400  -0.00005  -0.00250  -0.00095  -0.00348  -0.01748
   D10       -3.12275  -0.00019   0.00375  -0.01284  -0.00899  -3.13173
   D11        3.13738   0.00015  -0.00088   0.00793   0.00696  -3.13884
   D12        0.02863   0.00001   0.00536  -0.00395   0.00145   0.03009
   D13        0.00501   0.00001   0.00085   0.00084   0.00163   0.00664
   D14        3.13853  -0.00008  -0.00060  -0.00413  -0.00476   3.13377
   D15        3.11521   0.00013  -0.00512   0.01210   0.00704   3.12225
   D16       -0.03445   0.00003  -0.00656   0.00714   0.00065  -0.03380
   D17       -0.44180   0.00297   0.01762   0.20348   0.22114  -0.22067
   D18        2.73183   0.00293   0.02371   0.19231   0.21599   2.94782
   D19        0.00632  -0.00002   0.00117  -0.00226  -0.00108   0.00524
   D20        3.14123   0.00003  -0.00007   0.00109   0.00104  -3.14092
   D21       -3.12715   0.00008   0.00263   0.00274   0.00537  -3.12178
   D22        0.00776   0.00013   0.00139   0.00609   0.00748   0.01525
   D23       -1.52182   0.00046   0.00471   0.08643   0.09114  -1.43068
   D24        0.56713   0.00027   0.00367   0.08365   0.08730   0.65443
   D25        2.67238   0.00064   0.00575   0.08891   0.09472   2.76710
   D26        1.61152   0.00037   0.00323   0.08136   0.08457   1.69609
   D27       -2.58272   0.00018   0.00218   0.07858   0.08073  -2.50199
   D28       -0.47747   0.00054   0.00427   0.08385   0.08815  -0.38932
   D29       -0.00911   0.00004  -0.00162   0.00372   0.00210  -0.00700
   D30        3.13704  -0.00001  -0.00083   0.00018  -0.00065   3.13639
   D31        3.13921  -0.00001  -0.00037   0.00033  -0.00003   3.13917
   D32        0.00217  -0.00006   0.00041  -0.00322  -0.00279  -0.00062
         Item               Value     Threshold  Converged?
 Maximum Force            0.009095     0.000450     NO 
 RMS     Force            0.001973     0.000300     NO 
 Maximum Displacement     0.232422     0.001800     NO 
 RMS     Displacement     0.048548     0.001200     NO 
 Predicted change in Energy=-1.644713D-03
 GradGradGradGradGradGradGradGradGradGradGradGradGradGradGradGradGradGrad

                          Input orientation:                          
 ---------------------------------------------------------------------
 Center     Atomic      Atomic             Coordinates (Angstroms)
 Number     Number       Type             X           Y           Z
 ---------------------------------------------------------------------
      1          6           0       -0.068017   -0.034978    0.018201
      2          6           0        1.323859   -0.007716    0.040932
      3          6           0        2.043747    1.196260    0.043234
      4          6           0        1.348887    2.418763    0.000657
      5          6           0       -0.048553    2.392952   -0.034769
      6          6           0       -0.738743    1.182330   -0.021782
      7          1           0       -0.602383   -0.974290    0.025870
      8          1           0       -0.597521    3.325583   -0.068370
      9          6           0        2.103076    3.722911    0.012518
     10          1           0        2.385788    4.005658    1.039416
     11          1           0        3.028442    3.660396   -0.571938
     12          1           0        1.483819    4.531515   -0.398026
     13          8           0        3.398268    1.240204    0.053975
     14          1           0        3.749599    0.353804    0.260790
     15         17           0       -2.499475    1.185260   -0.059342
     16         17           0        2.214639   -1.524071    0.098900
 ---------------------------------------------------------------------
                    Distance matrix (angstroms):
                    1          2          3          4          5
     1  C    0.000000
     2  C    1.392329   0.000000
     3  C    2.444610   1.402783   0.000000
     4  C    2.833508   2.426941   1.406825   0.000000
     5  C    2.428585   2.766306   2.411612   1.398127   0.000000
     6  C    1.390436   2.382115   2.783284   2.426410   1.393605
     7  H    1.080700   2.155204   3.422512   3.914192   3.413023
     8  H    3.403122   3.848965   3.394520   2.148393   1.082726
     9  C    4.339978   3.811241   2.527534   1.506568   2.529928
    10  H    4.836401   4.269874   3.000348   2.161579   3.111384
    11  H    4.857171   4.090997   2.723973   2.165739   3.370885
    12  H    4.840899   4.563210   3.410595   2.154270   2.655856
    13  O    3.693576   2.420877   1.355276   2.364700   3.635557
    14  H    3.845022   2.462366   1.914940   3.177286   4.321046
    15  Cl   2.721577   4.006386   4.544392   4.041660   2.732424
    16  Cl   2.726615   1.759597   2.726262   4.037959   4.525812
                    6          7          8          9         10
     6  C    0.000000
     7  H    2.161453   0.000000
     8  H    2.148405   4.300909   0.000000
     9  C    3.812042   5.420645   2.730868   0.000000
    10  H    4.342812   5.895450   3.254202   1.101994   0.000000
    11  H    4.542594   5.917819   3.676043   1.096265   1.768805
    12  H    4.037125   5.903035   2.427946   1.098120   1.776602
    13  O    4.138109   4.572743   4.508892   2.800549   3.105470
    14  H    4.572911   4.556179   5.276104   3.758133   3.975208
    15  Cl   1.761135   2.875739   2.863300   5.256264   5.746974
    16  Cl   4.007697   2.871098   5.608508   5.248879   5.611752
                   11         12         13         14         15
    11  H    0.000000
    12  H    1.781840   0.000000
    13  O    2.527027   3.834338   0.000000
    14  H    3.485263   4.798028   0.975660   0.000000
    15  Cl   6.078397   5.213325   5.899087   6.312268   0.000000
    16  Cl   5.290652   6.119735   3.007360   2.430787   5.439520
                   16
    16  Cl   0.000000
 Stoichiometry    C7H6Cl2O
 Framework group  C1[X(C7H6Cl2O)]
 Deg. of freedom    42
 Full point group                 C1      NOp   1
 Largest Abelian subgroup         C1      NOp   1
 Largest concise Abelian subgroup C1      NOp   1
                         Standard orientation:                         
 ---------------------------------------------------------------------
 Center     Atomic      Atomic             Coordinates (Angstroms)
 Number     Number       Type             X           Y           Z
 ---------------------------------------------------------------------
      1          6           0       -0.517806   -1.160285    0.001312
      2          6           0        0.812261   -0.748698   -0.008720
      3          6           0        1.170692    0.607505   -0.002488
      4          6           0        0.163804    1.590008   -0.007013
      5          6           0       -1.172361    1.178405   -0.009513
      6          6           0       -1.500002   -0.176113   -0.001288
      7          1           0       -0.770985   -2.210902    0.005259
      8          1           0       -1.958658    1.922727   -0.013634
      9          6           0        0.527734    3.051863    0.009712
     10          1           0        0.749609    3.391334    1.034369
     11          1           0        1.417651    3.254161   -0.597677
     12          1           0       -0.302243    3.661407   -0.371684
     13          8           0        2.459928    1.024892   -0.023320
     14          1           0        3.048407    0.268459    0.159468
     15         17           0       -3.193141   -0.660732    0.003257
     16         17           0        2.089075   -1.959412    0.001358
 ---------------------------------------------------------------------
 Rotational constants (GHZ):           1.2704211           0.7230877           0.4621701
 Standard basis: 6-31G(d) (6D, 7F)
 There are   170 symmetry adapted cartesian basis functions of A   symmetry.
 There are   170 symmetry adapted basis functions of A   symmetry.
   170 basis functions,   352 primitive gaussians,   170 cartesian basis functions
    45 alpha electrons       45 beta electrons
       nuclear repulsion energy       653.5636846396 Hartrees.
 NAtoms=   16 NActive=   16 NUniq=   16 SFac= 1.00D+00 NAtFMM=   60 NAOKFM=F Big=F
 Integral buffers will be    131072 words long.
 Raffenetti 2 integral format.
 Two-electron integral symmetry is turned on.
 ------------------------------------------------------------------------------
 Polarizable Continuum Model (PCM)
 =================================
 Model                : PCM.
 Atomic radii         : SMD-Coulomb.
 Polarization charges : Total charges.
 Charge compensation  : None.
 Solution method      : On-the-fly selection.
 Cavity type          : VdW (van der Waals Surface) (Alpha=1.000).
 Cavity algorithm     : GePol (No added spheres)
                        Default sphere list used, NSphG=   16.
                        Lebedev-Laikov grids with approx.  5.0 points / Ang**2.
                        Smoothing algorithm: York/Karplus (Gamma=1.0000).
                        Polarization charges: spherical gaussians, with
                                              point-specific exponents (IZeta= 3).
                        Self-potential: point-specific (ISelfS= 7).
                        Self-field    : sphere-specific E.n sum rule (ISelfD= 2).
 1st derivatives      : Analytical E(r).r(x)/FMM algorithm (CHGder, D1EAlg=3).
                        Cavity 1st derivative terms included.
 Solvent              : Toluene, Eps=   2.374100 Eps(inf)=   2.238315
 ------------------------------------------------------------------------------
 Spheres list:
 ISph  on   Nord     Re0    Alpha      Xe            Ye            Ze
    1   C      1    1.8500  1.000     -0.517806     -1.160285      0.001312
    2   C      2    1.8500  1.000      0.812261     -0.748698     -0.008720
    3   C      3    1.8500  1.000      1.170692      0.607505     -0.002488
    4   C      4    1.8500  1.000      0.163804      1.590008     -0.007013
    5   C      5    1.8500  1.000     -1.172361      1.178405     -0.009513
    6   C      6    1.8500  1.000     -1.500002     -0.176113     -0.001288
    7   H      7    1.2000  1.000     -0.770985     -2.210902      0.005259
    8   H      8    1.2000  1.000     -1.958658      1.922727     -0.013634
    9   C      9    1.8500  1.000      0.527734      3.051863      0.009712
   10   H     10    1.2000  1.000      0.749609      3.391334      1.034369
   11   H     11    1.2000  1.000      1.417651      3.254161     -0.597677
   12   H     12    1.2000  1.000     -0.302243      3.661407     -0.371684
   13   O     13    2.2940  1.000      2.459928      1.024892     -0.023320
   14   H     14    1.2000  1.000      3.048407      0.268459      0.159468
   15  Cl     15    2.3800  1.000     -3.193141     -0.660732      0.003257
   16  Cl     16    2.3800  1.000      2.089075     -1.959412      0.001358
 ------------------------------------------------------------------------------
 ------------------------------------------------------------------------------
 Atomic radii for non-electrostatic terms: SMD-CDS.
 ------------------------------------------------------------------------------
 Nuclear repulsion after PCM non-electrostatic terms =      653.5561292966 Hartrees.
 One-electron integrals computed using PRISM.
 NBasis=   170 RedAO= T EigKep=  3.97D-04  NBF=   170
 NBsUse=   170 1.00D-06 EigRej= -1.00D+00 NBFU=   170
 Initial guess from the checkpoint file:  "ClClbz.chk"
 B after Tr=     0.000000    0.000000   -0.000000
         Rot=    0.999998   -0.000250   -0.000407   -0.001703 Ang=  -0.20 deg.
 ExpMin= 1.43D-01 ExpMax= 2.52D+04 ExpMxC= 3.78D+03 IAcc=3 IRadAn=         5 AccDes= 0.00D+00
 Harris functional with IExCor=  402 and IRadAn=       5 diagonalized for initial guess.
 HarFok:  IExCor=  402 AccDes= 0.00D+00 IRadAn=         5 IDoV= 1 UseB2=F ITyADJ=14
 ICtDFT=  3500011 ScaDFX=  1.000000  1.000000  1.000000  1.000000
 FoFCou: FMM=F IPFlag=           0 FMFlag=      100000 FMFlg1=           0
         NFxFlg=           0 DoJE=T BraDBF=F KetDBF=T FulRan=T
         wScrn=  0.000000 ICntrl=       500 IOpCl=  0 I1Cent=   200000004 NGrid=           0
         NMat0=    1 NMatS0=      1 NMatT0=    0 NMatD0=    1 NMtDS0=    0 NMtDT0=    0
 Petite list used in FoFCou.
 Requested convergence on RMS density matrix=1.00D-08 within 128 cycles.
 Requested convergence on MAX density matrix=1.00D-06.
 Requested convergence on             energy=1.00D-06.
 No special actions if energy rises.
 Inv3:  Mode=1 IEnd=     8256843.
 Iteration    1 A*A^-1 deviation from unit magnitude is 3.55D-15 for   1646.
 Iteration    1 A*A^-1 deviation from orthogonality  is 2.22D-15 for   1646   1508.
 Iteration    1 A^-1*A deviation from unit magnitude is 3.11D-15 for   1646.
 Iteration    1 A^-1*A deviation from orthogonality  is 2.37D-15 for   1611    631.
 Error on total polarization charges =  0.01229
 SCF Done:  E(RB3LYP) =  -1265.98524075     A.U. after   11 cycles
            NFock= 11  Conv=0.57D-08     -V/T= 2.0048
 SMD-CDS (non-electrostatic) energy       (kcal/mol) =      -4.74
 (included in total energy above)
 D1PCM: PCM CHGder 1st derivatives, ID1Alg=3 FixD1E=F DoIter=F DoCFld=F I1PDM=0.
 Calling FoFJK, ICntrl=      2127 FMM=F ISym2X=0 I1Cent= 0 IOpClX= 0 NMat=1 NMatS=1 NMatT=0.
 ***** Axes restored to original set *****
 -------------------------------------------------------------------
 Center     Atomic                   Forces (Hartrees/Bohr)
 Number     Number              X              Y              Z
 -------------------------------------------------------------------
      1        6           0.001363162    0.002206626   -0.000189768
      2        6          -0.002205472    0.002335780    0.001527071
      3        6          -0.000121871   -0.001744009   -0.001436143
      4        6          -0.003320491   -0.000309699   -0.000751854
      5        6           0.002275446   -0.001482044   -0.000019863
      6        6           0.000027524   -0.000414849   -0.000021056
      7        1          -0.000848959   -0.001650456    0.000000659
      8        1          -0.000812698    0.001513245   -0.000151729
      9        6           0.000693522    0.002560447    0.000497009
     10        1           0.000030251   -0.000752995   -0.002412416
     11        1          -0.001597700    0.000215272    0.000673360
     12        1           0.001554533   -0.001673019    0.001269858
     13        8           0.003446383   -0.000602361    0.003573197
     14        1          -0.000754262    0.001431822   -0.002384127
     15       17          -0.001089830    0.000158505   -0.000042330
     16       17           0.001360461   -0.001792264   -0.000131867
 -------------------------------------------------------------------
 Cartesian Forces:  Max     0.003573197 RMS     0.001536673

 GradGradGradGradGradGradGradGradGradGradGradGradGradGradGradGradGradGrad
 Berny optimization.
 Using GEDIIS/GDIIS optimizer.
 FormGI is forming the generalized inverse of G from B-inverse, IUseBI=4.
 Internal  Forces:  Max     0.002722903 RMS     0.000895811
 Search for a local minimum.
 Step number   3 out of a maximum of   83
 All quantities printed in internal units (Hartrees-Bohrs-Radians)
 Mixed Optimization -- En-DIIS/RFO-DIIS
 Update second derivatives using D2CorX and points    1    2    3
 DE= -1.85D-03 DEPred=-1.64D-03 R= 1.12D+00
 TightC=F SS=  1.41D+00  RLast= 3.87D-01 DXNew= 8.4853D-01 1.1608D+00
 Trust test= 1.12D+00 RLast= 3.87D-01 DXMaxT set to 8.49D-01
 ITU=  1  1  0
 Use linear search instead of GDIIS.
     Eigenvalues ---    0.00219   0.00898   0.01370   0.02019   0.02154
     Eigenvalues ---    0.02154   0.02155   0.02156   0.02156   0.02159
     Eigenvalues ---    0.02176   0.06848   0.06987   0.15562   0.16000
     Eigenvalues ---    0.16000   0.16000   0.16015   0.17308   0.22919
     Eigenvalues ---    0.23505   0.24278   0.24996   0.25000   0.25071
     Eigenvalues ---    0.26556   0.28352   0.29527   0.29599   0.33724
     Eigenvalues ---    0.34103   0.37210   0.37241   0.38430   0.42101
     Eigenvalues ---    0.42566   0.44299   0.46432   0.46458   0.46809
     Eigenvalues ---    0.48923   0.56746
 RFO step:  Lambda=-7.25183174D-04 EMin= 2.18989692D-03
 Quartic linear search produced a step of  0.33192.
 Iteration  1 RMS(Cart)=  0.05562753 RMS(Int)=  0.00364270
 Iteration  2 RMS(Cart)=  0.00388955 RMS(Int)=  0.00003308
 Iteration  3 RMS(Cart)=  0.00001997 RMS(Int)=  0.00003011
 Iteration  4 RMS(Cart)=  0.00000000 RMS(Int)=  0.00003011
 Variable       Old X    -DE/DX   Delta X   Delta X   Delta X     New X
                                 (Linear)    (Quad)   (Total)
    R1        2.63112   0.00018   0.00041  -0.00043  -0.00002   2.63110
    R2        2.62754   0.00008  -0.00022  -0.00052  -0.00075   2.62679
    R3        2.04223   0.00185  -0.00230   0.00487   0.00258   2.04480
    R4        2.65088  -0.00017   0.00056   0.00078   0.00135   2.65223
    R5        3.32516   0.00223   0.00181   0.00747   0.00928   3.33444
    R6        2.65851   0.00088   0.00595  -0.00065   0.00531   2.66382
    R7        2.56110   0.00272  -0.01452   0.00575  -0.00877   2.55233
    R8        2.64208  -0.00109   0.00124  -0.00332  -0.00209   2.63999
    R9        2.84700   0.00065  -0.00839   0.00344  -0.00495   2.84205
   R10        2.63353   0.00014  -0.00139   0.00126  -0.00015   2.63338
   R11        2.04606   0.00172  -0.00141   0.00399   0.00258   2.04863
   R12        3.32806   0.00109   0.00209   0.00286   0.00494   3.33301
   R13        2.08247  -0.00244   0.00421  -0.00517  -0.00097   2.08150
   R14        2.07164  -0.00171   0.00301  -0.00291   0.00010   2.07174
   R15        2.07515  -0.00259   0.00337  -0.00570  -0.00234   2.07281
   R16        1.84373  -0.00207   0.00317  -0.00417  -0.00100   1.84273
    A1        2.05506   0.00047  -0.00338   0.00135  -0.00203   2.05303
    A2        2.10738  -0.00031   0.00083  -0.00116  -0.00033   2.10705
    A3        2.12073  -0.00016   0.00255  -0.00018   0.00237   2.12310
    A4        2.12922   0.00032   0.00519   0.00078   0.00597   2.13519
    A5        2.08259   0.00027   0.00067  -0.00053   0.00011   2.08270
    A6        2.07120  -0.00058  -0.00590  -0.00002  -0.00595   2.06525
    A7        2.08553  -0.00118  -0.00418  -0.00274  -0.00694   2.07859
    A8        2.14211   0.00136   0.00351   0.00872   0.01217   2.15428
    A9        2.05523  -0.00017   0.00071  -0.00559  -0.00495   2.05028
   A10        2.06963   0.00095  -0.00067   0.00242   0.00175   2.07139
   A11        2.09987  -0.00144   0.00011  -0.00640  -0.00630   2.09356
   A12        2.11360   0.00049   0.00055   0.00400   0.00454   2.11814
   A13        2.10693   0.00015   0.00119   0.00083   0.00201   2.10893
   A14        2.08479  -0.00015  -0.00007  -0.00182  -0.00190   2.08289
   A15        2.09146  -0.00000  -0.00112   0.00101  -0.00010   2.09136
   A16        2.11987  -0.00070   0.00184  -0.00249  -0.00067   2.11920
   A17        2.07641   0.00062  -0.00093   0.00200   0.00108   2.07749
   A18        2.08690   0.00008  -0.00091   0.00048  -0.00041   2.08649
   A19        1.93678   0.00029   0.00387   0.00162   0.00546   1.94224
   A20        1.94873  -0.00017   0.00532  -0.00298   0.00230   1.95103
   A21        1.93069   0.00041   0.00383   0.00253   0.00631   1.93699
   A22        1.87013  -0.00026  -0.00582  -0.00254  -0.00838   1.86175
   A23        1.87982  -0.00013  -0.00492   0.00198  -0.00299   1.87683
   A24        1.89514  -0.00016  -0.00288  -0.00063  -0.00357   1.89157
   A25        1.90934  -0.00008   0.01362  -0.01322   0.00040   1.90974
    D1        0.01564  -0.00016   0.00148  -0.00894  -0.00748   0.00816
    D2        3.13688   0.00005  -0.00204   0.00446   0.00238   3.13926
    D3       -3.13189  -0.00012   0.00133  -0.00729  -0.00596  -3.13785
    D4       -0.01065   0.00009  -0.00219   0.00612   0.00390  -0.00675
    D5       -0.00335   0.00003  -0.00121   0.00258   0.00138  -0.00197
    D6        3.13645   0.00003  -0.00030   0.00115   0.00086   3.13731
    D7       -3.13896  -0.00000  -0.00106   0.00092  -0.00015  -3.13911
    D8        0.00085  -0.00001  -0.00015  -0.00051  -0.00067   0.00018
[...]
     6          0.25977369         -0.88379829          2.32732969
     6         -0.25231986          0.65204251          4.42120110
     6         -1.08489414          3.15057439          4.02792136
     6         -1.37426656          4.01993159          1.55603766
     6         -0.84981825          2.44712156         -0.49402347
     1          0.38226632         -1.24965113         -1.72957775
     1         -2.01432649          5.94076741          1.23169222
     6         -1.63864178          4.81135862          6.27345211
     1         -3.11764008          3.98888739          7.46941895
     1          0.03743139          5.03938193          7.47051932
     1         -2.26245221          6.68558252          5.66497450
     8          0.00999740         -0.13659809          6.84661911
     1          0.59199832         -1.88229498          6.85810225
    17         -1.23539564          3.60531193         -3.59386434
    17          1.30104108         -4.00879418          2.86186131

 Electric dipole moment (dipole orientation):
 (Debye = 10**-18 statcoulomb cm , SI units = C m)
                  (au)            (Debye)         (10**-30 SI)
   Tot        0.688856D+00      0.175090D+01      0.584037D+01
   x          0.000000D+00      0.000000D+00      0.000000D+00
   y          0.000000D+00      0.000000D+00      0.000000D+00
   z          0.688856D+00      0.175090D+01      0.584037D+01

 Dipole polarizability, Alpha (dipole orientation).
 (esu units = cm**3 , SI units = C**2 m**2 J**-1)
 Alpha(0;0):
               (au)            (10**-24 esu)      (10**-40 SI)
   iso        0.108953D+03      0.161451D+02      0.179639D+02
   aniso      0.963443D+02      0.142768D+02      0.158850D+02
   xx         0.549009D+02      0.813548D+01      0.905194D+01
   yx        -0.280067D+02     -0.415017D+01     -0.461768D+01
   yy         0.129614D+03      0.192068D+02      0.213704D+02
   zx         0.277923D+01      0.411840D+00      0.458234D+00
   zy        -0.838252D+01     -0.124216D+01     -0.138209D+01
   zz         0.142344D+03      0.210931D+02      0.234693D+02

 ----------------------------------------------------------------------
 Unable to Open any file for archive entry.
 1\1\GINC-RONG-OPTIPLEX-7040\Freq\RB3LYP\6-31G(d)\C7H6Cl2O1\RONG\23-Sep
 -2021\0\\#N Geom=AllCheck Guess=TCheck SCRF=Check GenChk RB3LYP/6-31G(
 d) Freq\\ClClbz\\0,1\C,-0.0691539976,-0.0331671821,0.0143950399\C,1.32
 11058952,-0.0009631338,0.095234664\C,2.0389721926,1.2016856014,0.09566
 52156\C,1.3379860754,2.4211703268,0.0118760899\C,-0.0543965696,2.39256
 24098,-0.0692043175\C,-0.7432013997,1.1792317204,-0.0675703564\H,-0.59
 99375658,-0.9776131829,0.0159974081\H,-0.6041233547,3.3258166683,-0.13
 41134844\C,2.1050642952,3.7180326796,0.0119247287\H,2.7019183459,3.826
 7549248,0.9254081843\H,2.8059029775,3.7653156275,-0.8301465001\H,1.425
 1188759,4.5718836276,-0.0582360781\O,3.3920894078,1.2631694417,0.17336
 81537\H,3.7523826824,0.3600135168,0.225930449\Cl,-2.5031181476,1.17861
 89812,-0.1712715119\Cl,2.2188213672,-1.517931727,0.2010077152\\Version
 =ES64L-G16RevC.01\State=1-A\HF=-1265.9863041\RMSD=1.632e-09\RMSF=6.094
 e-06\ZeroPoint=0.1136233\Thermal=0.1231568\ETot=-1265.8631472\HTot=-12
 65.862203\GTot=-1265.9079406\Dipole=0.6402737,0.2524673,0.0288604\Dipo
 leDeriv=-0.273691,-0.1031905,-0.0073907,0.1271161,-0.1446602,0.0094854
 ,-0.0154068,-0.0040839,-0.088112,0.2073329,-0.305968,0.0259276,-0.6647
 376,0.959632,-0.074417,0.0384048,-0.0532652,-0.0475947,1.3860971,0.093
 4675,0.0698086,0.0068031,-0.2648776,0.0147381,0.0729038,0.0198395,0.15
 07427,-0.0525601,-0.0073029,-0.0006435,0.3464332,0.3024659,0.0086028,-
 0.0129298,-0.0122102,-0.0377273,-0.1825473,0.0123158,-0.0042856,-0.042
 5306,0.0287329,-0.0075798,-0.0023659,-0.0043603,-0.1170707,1.2564406,0
 .0284475,0.073541,-0.0533494,-0.0597405,-0.0013434,0.0763532,0.0034837
 ,-0.0035908,0.0916144,-0.0351977,-0.0022834,-0.0405057,0.0422938,0.001
 4034,-0.002094,0.0017093,0.150954,0.0673233,0.0641022,-0.0060439,0.060
 2901,-0.0071913,0.0084026,-0.0059145,0.0086367,0.1313406,0.0187766,-0.
 0822403,-0.0013422,-0.0328809,0.1150841,-0.0028052,-0.0031055,-0.00580
 55,0.0905314,0.0130676,-0.0626822,-0.0828587,-0.0507719,-0.0061767,0.0
 096409,-0.08662,-0.0300515,-0.0482382,-0.0080734,-0.059487,0.0919646,-
 0.0427527,-0.0053327,-0.0174732,0.0947309,0.020539,-0.0278561,-0.01741
 17,0.1101101,-0.0099719,0.0379635,-0.0926241,0.0084897,-0.0074391,0.01
 27821,0.0849157,-1.6544812,0.0520216,-0.0761875,0.0124472,-0.2838678,-
 0.0030313,-0.0749106,-0.0007019,-0.3972645,0.4727494,-0.0130706,0.0077
 383,0.0036824,0.2771378,0.0026953,0.0071867,0.0017159,0.3493376,-0.953
 5459,0.014607,-0.0506381,0.006163,-0.1473576,0.0019046,-0.0503258,0.00
 2401,-0.1061729,-0.3710913,0.2940675,-0.0273346,0.3266303,-0.713518,0.
 0412869,-0.0284674,0.0393712,-0.0841949\Polar=147.5369786,-5.1050145,1
 33.2713484,6.1894087,-3.3548685,46.0499089\Quadrupole=-1.7104117,3.518
 1568,-1.8077451,-0.5474892,0.024779,-0.2179916\PG=C01 [X(C7H6Cl2O1)]\N
 Imag=0\\0.68493898,0.04176732,0.75010698,0.03214770,-0.01965936,0.1175
 2434,-0.33734661,-0.05161439,-0.01522549,0.64110370,0.01285364,-0.1102
 8994,0.00290754,0.07055285,0.52215497,-0.01747220,-0.00089232,-0.04958
 187,0.02946644,-0.01055613,0.10176652,-0.02219434,-0.02797487,-0.00030
 493,-0.16092044,-0.12711804,-0.00170537,0.72127718,-0.07588168,0.03683
 789,-0.00577351,-0.04917184,-0.25307380,0.00393343,0.00145717,0.688945
 63,0.00136384,-0.00295086,-0.00030064,-0.00442178,-0.00066224,-0.05712
 873,0.03386617,-0.01881198,0.14877696,-0.04429674,0.02972163,-0.003709
 89,0.05871493,0.02675024,0.00231445,-0.14861595,0.03199373,-0.00589072
 ,0.69817835,0.02750348,-0.01680580,0.00224394,-0.02527639,-0.05207326,
 0.00045074,0.10273940,-0.25752711,0.01266855,-0.00315981,0.62657545,-0
 .00363118,0.00237422,0.00077040,0.00412671,0.00351703,0.00376131,-0.00
 835342,0.00849941,-0.06838087,0.03174839,-0.01638109,0.16397049,0.0562
 4663,-0.02318987,0.00377943,-0.04638696,-0.02563747,-0.00179517,-0.028
 98036,0.07221144,-0.00424041,-0.34014496,-0.03373778,-0.01554764,0.692
 97965,0.02477250,-0.05518756,0.00358569,-0.03273856,-0.02062275,-0.001
 23886,0.02812483,0.04048510,0.00025825,0.03230020,-0.12551525,0.004307
 84,-0.03202904,0.73228245,0.00210865,0.00075882,0.00594028,-0.00154858
 ,-0.00082017,-0.00084010,-0.00270413,0.00285673,0.00002043,-0.01784706
 ,0.00041537,-0.05754029,0.03458775,-0.02302919,0.12800795,-0.15231604,
 0.12338628,-0.01005981,-0.03247722,0.02403513,-0.00299183,0.00032924,0
 .00051820,0.00000542,-0.02960748,-0.02524059,-0.00107091,-0.15176889,-
 0.11875999,-0.00148841,0.50105646,0.05851652,-0.29949003,0.01197994,0.
 08436278,0.03188348,0.00400405,0.00095625,-0.07537493,0.00268015,-0.07
 827644,0.03437646,-0.00568980,-0.05368525,-0.28703287,0.00486446,-0.00
 522371,0.66505317,-0.00780015,0.01580412,-0.05557914,-0.00509273,0.000
 44753,0.00375120,-0.00000971,0.00265344,-0.00016015,0.00077669,-0.0025
 6470,0.00359527,-0.00375461,0.00102847,-0.05664392,0.02336144,-0.01971
 049,0.10992472,-0.12732840,-0.12655706,-0.00120659,-0.01176888,-0.0270
 4803,0.00013620,-0.00417173,0.00244782,-0.00064584,-0.00075182,0.00054
 152,0.00001246,-0.00164327,0.00297555,-0.00050798,0.01070782,0.0148889
 3,-0.00003495,0.13286925,-0.12660080,-0.28117998,0.00121192,0.00270224
 ,0.00310813,0.00011729,0.00090940,0.00081486,0.00021101,0.00072679,0.0
 0027827,-0.00001155,0.00390771,-0.00259045,0.00050229,-0.01485087,-0.0
 1793221,-0.00016374,0.13379614,0.29551276,-0.00120506,0.00121428,-0.03
 220736,-0.00090008,-0.00163636,0.00190747,-0.00059202,0.00030148,0.005
 28812,0.00000599,-0.00002234,-0.00128163,-0.00054041,0.00044730,0.0051
 6803,0.00100074,0.00158967,0.00251037,0.00181618,-0.00160302,0.0231781
 2,-0.00132998,-0.00303575,-0.00026102,-0.00094771,-0.00070880,0.000003
 66,-0.00421934,-0.00193041,-0.00059115,-0.01239875,0.02664829,-0.00187
 394,-0.13028784,0.12601286,-0.01000630,0.00963063,-0.01529374,0.000980
 13,0.00066692,-0.00071990,0.00003269,0.13725753,-0.00398272,-0.0029753
 8,0.00003908,-0.00080501,0.00066519,-0.00009121,-0.00118201,0.00074889
 ,0.00014618,-0.00149407,0.00326922,-0.00007481,0.12426937,-0.27145809,
 0.01556100,0.01590333,-0.01925708,0.00167907,0.00076628,-0.00078506,0.
 00009128,-0.13283752,0.28692877,-0.00022838,0.00009512,0.00487361,0.00
 000718,-0.00008541,-0.00058751,-0.00061697,0.00010198,0.00690698,-0.00
 089384,0.00158467,0.00353879,-0.00994550,0.01566505,-0.03612537,-0.000
 10633,-0.00016079,0.00203848,-0.00001907,0.00000362,0.00053653,0.01127
 317,-0.01697075,0.02576552,-0.00161855,-0.00105843,0.00000485,-0.00165
 368,0.00323773,-0.00048992,0.01273779,0.00802148,0.00020197,-0.1182620
 1,-0.04971716,-0.00104740,-0.01949041,-0.02996941,-0.00039467,-0.00186
 251,0.00191607,-0.00063849,0.00011396,-0.00002471,0.00002146,0.0010883
 0,-0.00144505,0.00040107,0.56202600,0.00032504,-0.00050690,-0.00000062
 ,0.00323593,-0.00108547,0.00039399,-0.01021800,-0.03203521,0.00067334,
 -0.05630631,-0.18396780,0.00060996,-0.00762213,-0.00082950,-0.00024948
 ,0.00134642,0.00162980,0.00029629,-0.00002910,-0.00000515,-0.00000982,
 0.00209387,0.00093182,-0.00007901,-0.04979713,0.52722275,-0.00004436,-
 0.00008296,-0.00107551,-0.00049014,0.00039577,0.00471162,0.00083410,0.
 00174692,0.00458002,-0.00081522,0.00100358,-0.07120627,-0.00117214,-0.
 00156645,0.00488335,-0.00061676,0.00032884,0.00777443,0.00002151,-0.00
 000935,-0.00023210,0.00027687,-0.00028660,-0.00482758,0.00257385,-0.00
 223044,0.54796333,-0.00000895,0.00006033,-0.00006383,-0.00046313,-0.00
 015058,0.00018695,-0.00087892,0.00180739,0.00034621,-0.01193001,-0.004
 97702,-0.01252452,0.00023920,-0.00212404,-0.00031797,-0.00031281,-0.00
 037999,0.00098999,0.00000829,-0.00003096,-0.00003621,0.00015273,-0.000
 11977,-0.00064297,-0.12259451,-0.01016362,-0.12102597,0.13298548,-0.00
 074497,-0.00019175,-0.00026740,0.00007100,0.00096828,0.00087766,-0.002
 70081,-0.00054502,-0.00014765,-0.01681528,-0.00356077,-0.02436700,0.00
 013976,-0.00243435,-0.00020557,-0.00005417,-0.00042382,0.00105586,0.00
 001646,0.00001496,0.00004249,-0.00012435,0.00006233,-0.00040237,-0.011
 59982,-0.05120305,-0.01986635,0.01686727,0.05339923,-0.00003805,0.0000
 7560,-0.00001847,0.00008151,-0.00001015,-0.00016685,-0.00182624,0.0003
 9519,0.00084445,0.00140372,-0.00143375,0.00402444,0.00090762,0.0001862
 8,-0.00030919,0.00008560,-0.00017956,-0.00028469,0.00000407,-0.0000023
 3,0.00003892,0.00005112,0.00001125,0.00011884,-0.12011675,-0.01943622,
 -0.23268131,0.13174663,0.02068872,0.25060015,-0.00002412,0.00007278,0.
 00005927,-0.00042720,-0.00015981,-0.00021040,-0.00103153,0.00179909,-0
 .00069525,-0.01311265,-0.00431928,0.01092148,0.00029213,-0.00206731,0.
 00053676,-0.00018887,-0.00046687,-0.00095193,0.00000495,-0.00002871,0.
 00003402,0.00008253,-0.00007310,0.00064651,-0.15247260,-0.00283978,0.1
 3115983,0.01237258,0.00094258,-0.01408354,0.16563602,-0.00076676,-0.00
 018067,0.00018999,0.00017056,0.00090216,-0.00093855,-0.00257939,-0.000
 55756,-0.00005958,-0.01972123,-0.00181519,0.02265435,0.00004301,-0.002
 43445,0.00036213,0.00006341,-0.00048438,-0.00104583,0.00002079,0.00001
 224,-0.00003829,-0.00017426,0.00008872,0.00038923,-0.00437309,-0.04937
 551,0.00709680,0.00218199,-0.00005638,-0.00164471,0.00879326,0.0515458
 3,0.00009097,-0.00005550,-0.00001500,-0.00012467,-0.00008436,-0.000136
 42,0.00178840,-0.00007831,0.00101107,-0.00205454,0.00133286,0.00346251
 ,-0.00084180,-0.00028751,-0.00036553,-0.00007859,0.00013829,-0.0003469
 7,-0.00000957,0.00000077,0.00004505,-0.00004328,-0.00001826,0.00016313
 ,0.13035565,0.00684691,-0.20464767,0.01808059,0.00027357,-0.02214787,-
 0.14289508,-0.00633704,0.21981925,-0.00004469,-0.00003172,0.00000036,0
 .00064410,-0.00016824,0.00002049,-0.00300004,-0.00294478,-0.00013521,0
 .01117099,-0.01611652,0.00130323,0.00056373,-0.00177085,0.00011076,0.0
 0021933,-0.00016326,0.00003163,-0.00000038,0.00000931,-0.00000370,0.00
 006571,0.00042234,-0.00003293,-0.15752953,0.13415291,-0.01104881,-0.01
 040918,0.01247066,0.00070736,-0.01209902,0.01491777,-0.00319371,0.1699
 1186,-0.00031612,0.00017779,-0.00002584,0.00133408,0.00006904,0.000089
 47,-0.00399373,-0.00353736,-0.00007561,0.01786525,-0.02318160,0.001822
 48,0.00249917,0.00166040,0.00007992,0.00006982,-0.00019472,0.00000307,
 -0.00005318,0.00004715,-0.00000284,-0.00108788,0.00039793,-0.00006451,
 0.12982853,-0.21054471,0.01330093,-0.00270330,0.00358195,0.00076992,-0
 .00145796,0.00199013,-0.00109669,-0.14132472,0.22985254,0.00001063,-0.
 00000911,-0.00002934,-0.00003179,0.00000068,0.00038756,-0.00009796,-0.
 00001405,0.00102444,0.00011356,-0.00019124,-0.00129442,-0.00003814,-0.
 00017199,-0.00025314,0.00002301,-0.00001013,-0.00021251,-0.00000141,0.
 00000080,0.00005479,0.00002020,0.00002476,0.00036851,-0.01089770,0.013
 55817,-0.05138548,-0.01681123,0.02252325,-0.00006960,0.01542846,-0.020
 98097,0.00321288,0.01223268,-0.01477440,0.04814287,0.00084429,-0.00005
 382,-0.00033178,-0.04453404,-0.00711964,-0.00275684,-0.32885627,-0.038
 86817,-0.01563956,-0.04560597,0.01388817,-0.00356831,0.00602000,0.0013
 4044,0.00004193,-0.00047952,-0.00313988,0.00014753,-0.00115379,0.00026
 844,-0.00009753,-0.00088571,0.00009677,-0.00006233,0.00051591,-0.00442
 577,0.00040894,0.00108051,0.00164061,0.00075118,0.00118127,0.00151914,
 -0.00072752,0.00009221,-0.00046428,0.00001673,0.50589309,0.00402961,-0
 .00746526,0.00072369,-0.03795662,-0.00200465,-0.00194682,0.00997180,-0
 .10907205,0.00295738,0.04723013,0.00201489,0.00294836,-0.00315668,-0.0
 0907611,0.00028787,-0.00008715,0.00451927,-0.00020209,-0.00136414,0.00
 029934,-0.00007879,0.00175357,0.00024894,0.00009860,0.00292777,0.00043
 855,0.00002742,-0.00014671,0.00050633,0.00048310,-0.00009288,0.0005118
 5,-0.00053443,0.00088976,0.00036775,0.00004170,-0.12697699,0.54127020,
 -0.00047434,0.00048426,0.00645329,-0.00168014,-0.00012715,0.00628561,-
 0.01733487,0.00007533,-0.04187850,-0.00472758,0.00098245,0.00635700,0.
 00019974,0.00055199,0.00451332,0.00004149,-0.00038321,-0.00112049,-0.0
 0004072,0.00001740,0.00034055,-0.00011990,0.00000104,0.00010792,0.0001
 5169,-0.00040792,-0.00375847,0.00018569,-0.00051976,0.00004369,-0.0000
 4343,0.00066951,-0.00006353,-0.00003013,-0.00003734,0.00008062,0.03254
 815,-0.02526612,0.03152703,-0.00050013,0.00113940,-0.00003822,-0.00030
 997,0.00228977,-0.00012924,-0.02728846,0.04683927,-0.00304675,-0.00688
 052,-0.00285943,-0.00042331,0.00032485,0.00202858,-0.00014761,-0.00018
 198,-0.00057183,0.00001507,0.00023275,-0.00002514,0.00001296,-0.000414
 60,-0.00012781,-0.00000774,0.00006158,-0.00071383,0.00004455,0.0000182
 5,0.00008309,0.00020068,0.00002831,0.00010374,-0.00020464,0.00018627,-
 0.00006523,0.00000607,-0.09424453,0.11083983,-0.00909899,0.12725312,0.
 00027552,-0.00099992,0.00003278,-0.00762995,0.00244915,-0.00051653,0.0
 0626778,0.00084653,0.00023072,-0.00380214,0.00201302,-0.00022539,0.000
 97611,0.00006026,0.00011188,-0.00018898,-0.00058749,0.00000585,-0.0003
 8590,0.00013519,-0.00002652,-0.00005582,0.00011898,-0.00001465,0.00010
 841,-0.00040664,0.00001158,0.00012089,0.00005130,0.00014554,0.00014575
 ,0.00002104,-0.00013250,0.00001401,0.00005961,0.00000289,0.16119048,-0
 .42095946,0.02392273,-0.15739323,0.41872159,-0.00000770,0.00008310,-0.
 00053074,0.00021574,0.00006785,0.00054266,-0.00164305,0.00262490,-0.00
 337199,-0.00039076,-0.00016965,0.00197498,-0.00011144,0.00017428,0.001
 61093,0.00000186,-0.00001605,-0.00009736,0.00002555,-0.00000526,0.0000
 2839,-0.00001040,-0.00001894,-0.00020739,0.00001517,-0.00003705,-0.000
 26516,-0.00012219,0.00029783,-0.00001037,0.00011564,-0.00028959,0.0000
 1023,0.00000328,-0.00000162,0.00012116,-0.01084181,0.02095136,-0.00650
 649,0.01261705,-0.02359609,0.00744402,-0.03641536,0.00022311,-0.002300
 62,0.00156422,0.00097948,-0.00021223,0.00276478,0.00097624,0.00017658,
 0.00226331,-0.00404859,0.00002295,-0.03697459,0.00079942,-0.00235169,-
 0.15111992,0.00015362,-0.00778725,0.00125915,-0.00072332,0.00025926,0.
 00147051,0.00044629,0.00020768,-0.00082567,0.00122613,-0.00010671,-0.0
 0033878,-0.00036146,0.00005689,-0.00032643,-0.00035811,-0.00007354,0.0
 0012526,-0.00018625,0.00001542,-0.00498547,0.00010857,-0.00028027,0.00
 045752,-0.00040761,0.00004350,0.22281505,0.02689953,0.00255258,0.00158
 320,-0.00174969,-0.00304164,0.00016241,0.00009231,0.00163181,-0.000079
 19,0.00141370,-0.00388266,0.00036699,-0.02677849,0.00325375,-0.0016061
 2,0.00021382,-0.03877175,0.00069778,0.00056103,0.00124067,-0.00010450,
 -0.00073641,0.00112349,-0.00016315,-0.00064197,0.00037009,-0.00004156,
 -0.00010636,-0.00011027,0.00001637,-0.00010704,-0.00011643,-0.00001969
 ,0.00007114,0.00004118,0.00000186,0.00011153,0.00022317,-0.00001171,-0
 .00009550,-0.00004971,-0.00000524,-0.00018424,0.03594072,-0.00322988,0
 .00001082,0.00229615,-0.00011719,0.00032344,0.00456549,0.00020665,-0.0
 0002709,-0.00078442,-0.00016718,0.00004509,0.00425497,-0.00139181,0.00
 001921,0.00237078,-0.00778846,0.00069433,-0.01957657,0.00021449,-0.000
 18022,-0.00269153,0.00024886,-0.00009344,-0.00229752,-0.00004171,0.000
 06841,0.00025625,0.00002223,0.00005168,0.00002261,-0.00005640,-0.00008
 479,0.00001625,0.00000638,-0.00001329,-0.00002464,-0.00027971,-0.00001
 194,-0.00031957,0.00003253,-0.00002361,-0.00003523,0.01250090,-0.00088
 531,0.01159709,-0.01860599,0.03714506,-0.00248944,-0.06479110,0.047411
 78,-0.00436501,-0.00695159,0.00072503,-0.00065352,0.00127928,-0.001868
 29,-0.00009458,-0.00098892,0.00110482,-0.00007143,-0.00162826,-0.00359
 320,-0.00023265,0.00095517,0.00068435,0.00019170,0.00006905,0.00016267
 ,0.00002043,-0.00023409,-0.00026462,0.00000046,0.00007925,0.00016943,0
 .00006819,0.00008463,0.00015917,-0.00006868,0.00010339,0.00005581,0.00
 001146,0.00511802,-0.00796986,0.00070361,0.00125753,0.00076467,0.00008
 956,-0.00173358,0.00103664,-0.00015968,0.08598719,0.01134989,-0.014402
 04,0.00122895,0.04451300,-0.12000891,0.00615138,0.02524790,-0.03858767
 ,0.00296154,-0.00842640,-0.00019790,-0.00035100,0.00179015,-0.00056058
 ,0.00011006,-0.00113095,0.00208708,0.00001537,-0.00057709,0.00102929,-
 0.00016401,0.00019624,-0.00010867,0.00000237,0.00258678,-0.00063307,0.
 00017187,-0.00013553,-0.00005898,-0.00006524,-0.00014073,-0.00005139,0
 .00005188,-0.00042782,-0.00078709,-0.00000222,0.00099296,-0.00182276,0
 .00004848,-0.00147168,-0.00147343,-0.00005983,0.00135673,-0.00040502,0
 .00010672,-0.07572344,0.17598114,-0.00159049,0.00274976,0.00148000,-0.
 00426501,0.00632212,-0.01923796,-0.00150665,0.00151613,0.00355283,0.00
 013398,0.00003551,0.00399332,-0.00009548,0.00006965,-0.00043753,-0.000
 31847,-0.00012969,0.00442733,0.00023566,-0.00008962,-0.00268372,0.0000
 1929,0.00000035,-0.00037294,-0.00009906,0.00000349,-0.00008947,-0.0000
 1338,-0.00003496,-0.00000475,0.00003405,0.00005734,-0.00001739,0.00002
 832,0.00002634,-0.00012369,0.00039093,-0.00047928,-0.00206199,0.000167
 59,0.00007131,-0.00070763,-0.00017088,0.00008787,0.00034986,0.00704958
 ,-0.01020632,0.01193372\\0.00000043,0.00000256,0.00000146,-0.00000148,
 -0.00002045,0.00000149,0.00000465,0.00000251,-0.00000679,-0.00000363,-
 0.00000438,0.00000255,0.00000492,0.00000433,0.00000278,-0.00000806,0.0
 0000712,-0.00000403,-0.00000891,0.00000699,-0.00000078,0.00000414,0.00
 000443,0.00000005,0.00001259,0.00000771,-0.00000058,0.00000411,-0.0000
 0633,0.00000372,0.00000369,-0.00000553,-0.00000151,0.00000343,0.000003
 41,-0.00000161,-0.00000276,-0.00000769,0.00000441,-0.00000177,-0.00001
 042,-0.00000087,0.00000269,0.00000875,0.00000057,-0.00001403,0.0000069
 8,-0.00000087\\\@
 The archive entry for this job was punched.


 THE PROMISED LAND ALWAYS LIES ON THE OTHER SIDE OF A WILDERNESS.

                         -- HAVELOCK ELLIS
 Job cpu time:       0 days  0 hours 20 minutes  3.9 seconds.
 Elapsed time:       0 days  0 hours  2 minutes 30.7 seconds.
 File lengths (MBytes):  RWF=    117 Int=      0 D2E=      0 Chk=      8 Scr=      1
 Normal termination of Gaussian 16 at Thu Sep 23 14:57:21 2021.
