 Entering Gaussian System, Link 0=/home/rong/g16/g16
 Input=/home/rong/g16/092321/HClbz.gjf
 Output=/home/rong/g16/092321/HClbz.log
 Initial command:
 /home/rong/g16/l1.exe "/tmp/Gau-83973.inp" -scrdir="/tmp/"
 Default is to use a total of   8 processors:
                                8 via shared-memory
                                1 via Linda
 Entering Link 1 = /home/rong/g16/l1.exe PID=     83975.
  
 Copyright (c) 1988-2019, Gaussian, Inc.  All Rights Reserved.
  
 This is part of the Gaussian(R) 16 program.  It is based on
 the Gaussian(R) 09 system (copyright 2009, Gaussian, Inc.),
 the Gaussian(R) 03 system (copyright 2003, Gaussian, Inc.),
 the Gaussian(R) 98 system (copyright 1998, Gaussian, Inc.),
 the Gaussian(R) 94 system (copyright 1995, Gaussian, Inc.),
 the Gaussian 92(TM) system (copyright 1992, Gaussian, Inc.),
 the Gaussian 90(TM) system (copyright 1990, Gaussian, Inc.),
 the Gaussian 88(TM) system (copyright 1988, Gaussian, Inc.),
 the Gaussian 86(TM) system (copyright 1986, Carnegie Mellon
 University), and the Gaussian 82(TM) system (copyright 1983,
 Carnegie Mellon University). Gaussian is a federally registered
 trademark of Gaussian, Inc.
  
 This software contains proprietary and confidential information,
 including trade secrets, belonging to Gaussian, Inc.
  
 This software is provided under written license and may be
 used, copied, transmitted, or stored only in accord with that
 written license.
  
 The following legend is applicable only to US Government
 contracts under FAR:
  
                    RESTRICTED RIGHTS LEGEND
  
 Use, reproduction and disclosure by the US Government is
 subject to restrictions as set forth in subparagraphs (a)
 and (c) of the Commercial Computer Software - Restricted
 Rights clause in FAR 52.227-19.
  
 Gaussian, Inc.
 340 Quinnipiac St., Bldg. 40, Wallingford CT 06492
  
  
 ---------------------------------------------------------------
 Warning -- This program may not be used in any manner that
 competes with the business of Gaussian, Inc. or will provide
 assistance to any competitor of Gaussian, Inc.  The licensee
 of this program is prohibited from giving any competitor of
 Gaussian, Inc. access to this program.  By using this program,
 the user acknowledges that Gaussian, Inc. is engaged in the
 business of creating and licensing software in the field of
 computational chemistry and represents and warrants to the
 licensee that it is not a competitor of Gaussian, Inc. and that
 it will not use this program in any manner prohibited above.
 ---------------------------------------------------------------
  

 Cite this work as:
 Gaussian 16, Revision C.01,
 M. J. Frisch, G. W. Trucks, H. B. Schlegel, G. E. Scuseria, 
 M. A. Robb, J. R. Cheeseman, G. Scalmani, V. Barone, 
 G. A. Petersson, H. Nakatsuji, X. Li, M. Caricato, A. V. Marenich, 
 J. Bloino, B. G. Janesko, R. Gomperts, B. Mennucci, H. P. Hratchian, 
 J. V. Ortiz, A. F. Izmaylov, J. L. Sonnenberg, D. Williams-Young, 
 F. Ding, F. Lipparini, F. Egidi, J. Goings, B. Peng, A. Petrone, 
 T. Henderson, D. Ranasinghe, V. G. Zakrzewski, J. Gao, N. Rega, 
 G. Zheng, W. Liang, M. Hada, M. Ehara, K. Toyota, R. Fukuda, 
 J. Hasegawa, M. Ishida, T. Nakajima, Y. Honda, O. Kitao, H. Nakai, 
 T. Vreven, K. Throssell, J. A. Montgomery, Jr., J. E. Peralta, 
 F. Ogliaro, M. J. Bearpark, J. J. Heyd, E. N. Brothers, K. N. Kudin, 
 V. N. Staroverov, T. A. Keith, R. Kobayashi, J. Normand, 
 K. Raghavachari, A. P. Rendell, J. C. Burant, S. S. Iyengar, 
 J. Tomasi, M. Cossi, J. M. Millam, M. Klene, C. Adamo, R. Cammi, 
 J. W. Ochterski, R. L. Martin, K. Morokuma, O. Farkas, 
 J. B. Foresman, and D. J. Fox, Gaussian, Inc., Wallingford CT, 2019.
 
 ******************************************
 Gaussian 16:  ES64L-G16RevC.01  3-Jul-2019
                23-Sep-2021 
 ******************************************
 %mem=15GB
 %chk=HClbz.chk
 %nprocshared=8
 Will use up to    8 processors via shared memory.
 ----------------------------------------------------
 # opt freq b3lyp/6-31g(d) scrf=(smd,solvent=toluene)
 ----------------------------------------------------
 1/18=20,19=15,26=3,38=1/1,3;
 2/9=110,12=2,17=6,18=5,40=1/2;
 3/5=1,6=6,7=1,11=2,25=1,30=1,70=32201,71=1,72=13,74=-5/1,2,3;
 4//1;
 5/5=2,38=5,53=13/2;
 6/7=2,8=2,9=2,10=2,28=1/1;
 7//1,2,3,16;
 1/18=20,19=15,26=3/3(2);
 2/9=110/2;
 99//99;
 2/9=110/2;
 3/5=1,6=6,7=1,11=2,25=1,30=1,70=32205,71=1,72=13,74=-5/1,2,3;
 4/5=5,16=3,69=1/1;
 5/5=2,38=5,53=13/2;
 7//1,2,3,16;
 1/18=20,19=15,26=3/3(-5);
 2/9=110/2;
 6/7=2,8=2,9=2,10=2,19=2,28=1/1;
 99/9=1/99;
 -----
 HClbz
 -----
 Symbolic Z-matrix:
 Charge =  0 Multiplicity = 1
 C                     1.20588  -0.48529   0. 
 C                     2.60104  -0.48529   0. 
 C                     3.29858   0.72246   0. 
 C                     2.60093   1.93097  -0.0012 
 C                     1.2061    1.93089  -0.00168 
 C                     0.5085    0.72268  -0.00068 
 H                     0.65612  -1.43761   0.00045 
 H                     3.15055  -1.43781   0.00132 
 H                     0.65598   2.88317  -0.00263 
 O                     4.72858   0.72256   0.00082 
 H                     5.04956   0.72145  -0.90393 
 C                     3.37143   3.26435  -0.00128 
 H                     4.01214   3.3061    0.85466 
 H                     3.96057   3.33579  -0.89162 
 H                     2.67693   4.07761   0.03306 
 Cl                   -1.2515    0.72297  -0.00097 
 

 GradGradGradGradGradGradGradGradGradGradGradGradGradGradGradGradGradGrad
 Berny optimization.
 Initialization pass.
                           ----------------------------
                           !    Initial Parameters    !
                           ! (Angstroms and Degrees)  !
 --------------------------                            --------------------------
 ! Name  Definition              Value          Derivative Info.                !
 --------------------------------------------------------------------------------
 ! R1    R(1,2)                  1.3952         estimate D2E/DX2                !
 ! R2    R(1,6)                  1.3948         estimate D2E/DX2                !
 ! R3    R(1,7)                  1.0996         estimate D2E/DX2                !
 ! R4    R(2,3)                  1.3947         estimate D2E/DX2                !
 ! R5    R(2,8)                  1.0997         estimate D2E/DX2                !
 ! R6    R(3,4)                  1.3954         estimate D2E/DX2                !
 ! R7    R(3,10)                 1.43           estimate D2E/DX2                !
 ! R8    R(4,5)                  1.3948         estimate D2E/DX2                !
 ! R9    R(4,12)                 1.54           estimate D2E/DX2                !
 ! R10   R(5,6)                  1.3951         estimate D2E/DX2                !
 ! R11   R(5,9)                  1.0998         estimate D2E/DX2                !
 ! R12   R(6,16)                 1.76           estimate D2E/DX2                !
 ! R13   R(10,11)                0.96           estimate D2E/DX2                !
 ! R14   R(12,13)                1.07           estimate D2E/DX2                !
 ! R15   R(12,14)                1.07           estimate D2E/DX2                !
 ! R16   R(12,15)                1.07           estimate D2E/DX2                !
 ! A1    A(2,1,6)              119.9985         estimate D2E/DX2                !
 ! A2    A(2,1,7)              119.9972         estimate D2E/DX2                !
 ! A3    A(6,1,7)              120.0043         estimate D2E/DX2                !
 ! A4    A(1,2,3)              120.0086         estimate D2E/DX2                !
 ! A5    A(1,2,8)              119.9808         estimate D2E/DX2                !
 ! A6    A(3,2,8)              120.0106         estimate D2E/DX2                !
 ! A7    A(2,3,4)              119.9942         estimate D2E/DX2                !
 ! A8    A(2,3,10)             120.0128         estimate D2E/DX2                !
 ! A9    A(4,3,10)             119.993          estimate D2E/DX2                !
 ! A10   A(3,4,5)              119.994          estimate D2E/DX2                !
 ! A11   A(3,4,12)             119.9811         estimate D2E/DX2                !
 ! A12   A(5,4,12)             120.0249         estimate D2E/DX2                !
 ! A13   A(4,5,6)              120.0047         estimate D2E/DX2                !
 ! A14   A(4,5,9)              120.0113         estimate D2E/DX2                !
 ! A15   A(6,5,9)              119.984          estimate D2E/DX2                !
 ! A16   A(1,6,5)              120.0            estimate D2E/DX2                !
 ! A17   A(1,6,16)             120.008          estimate D2E/DX2                !
 ! A18   A(5,6,16)             119.992          estimate D2E/DX2                !
 ! A19   A(3,10,11)            109.5            estimate D2E/DX2                !
 ! A20   A(4,12,13)            109.4712         estimate D2E/DX2                !
 ! A21   A(4,12,14)            109.4712         estimate D2E/DX2                !
 ! A22   A(4,12,15)            109.4712         estimate D2E/DX2                !
 ! A23   A(13,12,14)           109.4713         estimate D2E/DX2                !
 ! A24   A(13,12,15)           109.4712         estimate D2E/DX2                !
 ! A25   A(14,12,15)           109.4712         estimate D2E/DX2                !
 ! D1    D(6,1,2,3)              0.0323         estimate D2E/DX2                !
 ! D2    D(6,1,2,8)            179.9532         estimate D2E/DX2                !
 ! D3    D(7,1,2,3)           -179.9729         estimate D2E/DX2                !
 ! D4    D(7,1,2,8)             -0.052          estimate D2E/DX2                !
 ! D5    D(2,1,6,5)              0.0149         estimate D2E/DX2                !
 ! D6    D(2,1,6,16)           179.9892         estimate D2E/DX2                !
 ! D7    D(7,1,6,5)           -179.9798         estimate D2E/DX2                !
 ! D8    D(7,1,6,16)            -0.0056         estimate D2E/DX2                !
 ! D9    D(1,2,3,4)             -0.0568         estimate D2E/DX2                !
 ! D10   D(1,2,3,10)           179.9619         estimate D2E/DX2                !
 ! D11   D(8,2,3,4)           -179.9777         estimate D2E/DX2                !
 ! D12   D(8,2,3,10)             0.041          estimate D2E/DX2                !
 ! D13   D(2,3,4,5)              0.0341         estimate D2E/DX2                !
 ! D14   D(2,3,4,12)          -179.9964         estimate D2E/DX2                !
 ! D15   D(10,3,4,5)          -179.9846         estimate D2E/DX2                !
 ! D16   D(10,3,4,12)           -0.0151         estimate D2E/DX2                !
 ! D17   D(2,3,10,11)           89.947          estimate D2E/DX2                !
 ! D18   D(4,3,10,11)          -90.0343         estimate D2E/DX2                !
 ! D19   D(3,4,5,6)              0.0131         estimate D2E/DX2                !
 ! D20   D(3,4,5,9)           -179.9995         estimate D2E/DX2                !
 ! D21   D(12,4,5,6)          -179.9563         estimate D2E/DX2                !
 ! D22   D(12,4,5,9)             0.0311         estimate D2E/DX2                !
 ! D23   D(3,4,12,13)          -57.9932         estimate D2E/DX2                !
 ! D24   D(3,4,12,14)           62.0069         estimate D2E/DX2                !
 ! D25   D(3,4,12,15)         -177.9932         estimate D2E/DX2                !
 ! D26   D(5,4,12,13)          121.9763         estimate D2E/DX2                !
 ! D27   D(5,4,12,14)         -118.0237         estimate D2E/DX2                !
 ! D28   D(5,4,12,15)            1.9763         estimate D2E/DX2                !
 ! D29   D(4,5,6,1)             -0.0376         estimate D2E/DX2                !
 ! D30   D(4,5,6,16)           179.9881         estimate D2E/DX2                !
 ! D31   D(9,5,6,1)            179.975          estimate D2E/DX2                !
 ! D32   D(9,5,6,16)             0.0007         estimate D2E/DX2                !
 --------------------------------------------------------------------------------
 Trust Radius=3.00D-01 FncErr=1.00D-07 GrdErr=1.00D-06 EigMax=2.50D+02 EigMin=1.00D-04
 Number of steps in this run=     83 maximum allowed number of steps=    100.
 GradGradGradGradGradGradGradGradGradGradGradGradGradGradGradGradGradGrad

                          Input orientation:                          
 ---------------------------------------------------------------------
 Center     Atomic      Atomic             Coordinates (Angstroms)
 Number     Number       Type             X           Y           Z
 ---------------------------------------------------------------------
      1          6           0        1.205882   -0.485294    0.000000
      2          6           0        2.601042   -0.485294    0.000000
      3          6           0        3.298580    0.722457    0.000000
      4          6           0        2.600926    1.930966   -0.001199
      5          6           0        1.206101    1.930888   -0.001678
      6          6           0        0.508500    0.722682   -0.000682
      7          1           0        0.656123   -1.437611    0.000450
      8          1           0        3.150550   -1.437807    0.001315
      9          1           0        0.655979    2.883169   -0.002631
     10          8           0        4.728580    0.722561    0.000824
     11          1           0        5.049556    0.721446   -0.903926
     12          6           0        3.371430    3.264354   -0.001282
     13          1           0        4.012143    3.306101    0.854665
     14          1           0        3.960570    3.335794   -0.891625
     15          1           0        2.676928    4.077611    0.033058
     16         17           0       -1.251500    0.722975   -0.000970
 ---------------------------------------------------------------------
                    Distance matrix (angstroms):
                    1          2          3          4          5
     1  C    0.000000
     2  C    1.395160   0.000000
     3  C    2.416205   1.394712   0.000000
     4  C    2.790065   2.416260   1.395427   0.000000
     5  C    2.416183   2.789946   2.416356   1.394825   0.000000
     6  C    1.394829   2.416183   2.790080   2.416236   1.395138
     7  H    1.099610   2.165553   3.412986   3.889675   3.413102
     8  H    2.165414   1.099655   2.165330   3.413316   3.889601
     9  H    3.413055   3.889707   3.413506   2.165528   1.099761
    10  O    3.724019   2.446494   1.430000   2.446867   3.723965
    11  H    4.128817   2.875504   1.970533   2.876394   4.129037
    12  C    4.330065   3.827971   2.542941   1.540000   2.542987
    13  H    4.793770   4.134771   2.813333   2.148263   3.240124
    14  H    4.794165   4.152593   2.839500   2.148263   3.217587
    15  H    4.794285   4.563656   3.412419   2.148263   2.602490
    16  Cl   2.738365   4.037573   4.550080   4.037379   2.738404
                    6          7          8          9         10
     6  C    0.000000
     7  H    2.165331   0.000000
     8  H    3.412938   2.494427   0.000000
     9  H    2.165516   4.320781   4.989362   0.000000
    10  O    4.220080   4.609908   2.675326   4.610240   0.000000
    11  H    4.630015   4.978120   3.014641   4.978845   0.960000
    12  C    3.828376   5.429675   4.707347   2.742076   2.881418
    13  H    4.436348   5.873275   4.896449   3.489651   2.813717
    14  H    4.420285   5.873718   4.923489   3.451884   2.866233
    15  H    3.994842   5.873873   5.535807   2.347807   3.932770
    16  Cl   1.760000   2.882214   4.903777   2.881825   5.980080
                   11         12         13         14         15
    11  H    0.000000
    12  C    3.177618   0.000000
    13  H    3.293829   1.070000   0.000000
    14  H    2.832113   1.070000   1.747303   0.000000
    15  H    4.215584   1.070000   1.747303   1.747303   0.000000
    16  Cl   6.365425   5.275423   5.925419   5.897946   5.165973
                   16
    16  Cl   0.000000
 Stoichiometry    C7H7ClO
 Framework group  C1[X(C7H7ClO)]
 Deg. of freedom    42
 Full point group                 C1      NOp   1
 Largest Abelian subgroup         C1      NOp   1
 Largest concise Abelian subgroup C1      NOp   1
                         Standard orientation:                         
 ---------------------------------------------------------------------
 Center     Atomic      Atomic             Coordinates (Angstroms)
 Number     Number       Type             X           Y           Z
 ---------------------------------------------------------------------
      1          6           0        0.755398   -1.385818   -0.016510
      2          6           0       -0.616264   -1.640365   -0.031421
      3          6           0       -1.522492   -0.580190   -0.031681
      4          6           0       -1.057177    0.735275   -0.015827
      5          6           0        0.314165    0.989681   -0.000441
      6          6           0        1.220547   -0.070923   -0.001179
      7          1           0        1.469718   -2.221813   -0.016758
      8          1           0       -0.982651   -2.677108   -0.044283
      9          1           0        0.681202    2.026311    0.012064
     10          8           0       -2.928417   -0.840985   -0.047788
     11          1           0       -3.252307   -0.907707    0.853457
     12          6           0       -2.058074    1.905661   -0.016036
     13          1           0       -2.687552    1.836491   -0.878517
     14          1           0       -2.658718    1.861461    0.868369
     15          1           0       -1.523381    2.832223   -0.038106
     16         17           0        2.950847    0.250476    0.017921
 ---------------------------------------------------------------------
 Rotational constants (GHZ):           2.9921752           0.8467054           0.6640102
 Standard basis: 6-31G(d) (6D, 7F)
 There are   153 symmetry adapted cartesian basis functions of A   symmetry.
 There are   153 symmetry adapted basis functions of A   symmetry.
   153 basis functions,   304 primitive gaussians,   153 cartesian basis functions
    37 alpha electrons       37 beta electrons
       nuclear repulsion energy       479.9669200513 Hartrees.
 NAtoms=   16 NActive=   16 NUniq=   16 SFac= 1.00D+00 NAtFMM=   60 NAOKFM=F Big=F
 Integral buffers will be    131072 words long.
 Raffenetti 2 integral format.
 Two-electron integral symmetry is turned on.
 ------------------------------------------------------------------------------
 Polarizable Continuum Model (PCM)
 =================================
 Model                : PCM.
 Atomic radii         : SMD-Coulomb.
 Polarization charges : Total charges.
 Charge compensation  : None.
 Solution method      : On-the-fly selection.
 Cavity type          : VdW (van der Waals Surface) (Alpha=1.000).
 Cavity algorithm     : GePol (No added spheres)
                        Default sphere list used, NSphG=   16.
                        Lebedev-Laikov grids with approx.  5.0 points / Ang**2.
                        Smoothing algorithm: York/Karplus (Gamma=1.0000).
                        Polarization charges: spherical gaussians, with
                                              point-specific exponents (IZeta= 3).
                        Self-potential: point-specific (ISelfS= 7).
                        Self-field    : sphere-specific E.n sum rule (ISelfD= 2).
 1st derivatives      : Analytical E(r).r(x)/FMM algorithm (CHGder, D1EAlg=3).
                        Cavity 1st derivative terms included.
 Solvent              : Toluene, Eps=   2.374100 Eps(inf)=   2.238315
 ------------------------------------------------------------------------------
 Spheres list:
 ISph  on   Nord     Re0    Alpha      Xe            Ye            Ze
    1   C      1    1.8500  1.000      0.755398     -1.385818     -0.016510
    2   C      2    1.8500  1.000     -0.616264     -1.640365     -0.031421
    3   C      3    1.8500  1.000     -1.522492     -0.580190     -0.031681
    4   C      4    1.8500  1.000     -1.057177      0.735275     -0.015827
    5   C      5    1.8500  1.000      0.314165      0.989681     -0.000441
    6   C      6    1.8500  1.000      1.220547     -0.070923     -0.001179
    7   H      7    1.2000  1.000      1.469718     -2.221813     -0.016758
    8   H      8    1.2000  1.000     -0.982651     -2.677108     -0.044283
    9   H      9    1.2000  1.000      0.681202      2.026311      0.012064
   10   O     10    2.2940  1.000     -2.928417     -0.840985     -0.047788
   11   H     11    1.2000  1.000     -3.252307     -0.907707      0.853457
   12   C     12    1.8500  1.000     -2.058074      1.905661     -0.016036
   13   H     13    1.2000  1.000     -2.687552      1.836491     -0.878517
   14   H     14    1.2000  1.000     -2.658718      1.861461      0.868369
   15   H     15    1.2000  1.000     -1.523381      2.832223     -0.038106
   16  Cl     16    2.3800  1.000      2.950847      0.250476      0.017921
 ------------------------------------------------------------------------------
 ------------------------------------------------------------------------------
 Atomic radii for non-electrostatic terms: SMD-CDS.
 ------------------------------------------------------------------------------
 Nuclear repulsion after PCM non-electrostatic terms =      479.9602686771 Hartrees.
 One-electron integrals computed using PRISM.
 NBasis=   153 RedAO= T EigKep=  4.02D-04  NBF=   153
 NBsUse=   153 1.00D-06 EigRej= -1.00D+00 NBFU=   153
 ExpMin= 1.43D-01 ExpMax= 2.52D+04 ExpMxC= 3.78D+03 IAcc=3 IRadAn=         5 AccDes= 0.00D+00
 Harris functional with IExCor=  402 and IRadAn=       5 diagonalized for initial guess.
 HarFok:  IExCor=  402 AccDes= 0.00D+00 IRadAn=         5 IDoV= 1 UseB2=F ITyADJ=14
 ICtDFT=  3500011 ScaDFX=  1.000000  1.000000  1.000000  1.000000
 FoFCou: FMM=F IPFlag=           0 FMFlag=      100000 FMFlg1=           0
         NFxFlg=           0 DoJE=T BraDBF=F KetDBF=T FulRan=T
         wScrn=  0.000000 ICntrl=       500 IOpCl=  0 I1Cent=   200000004 NGrid=           0
         NMat0=    1 NMatS0=      1 NMatT0=    0 NMatD0=    1 NMtDS0=    0 NMtDT0=    0
 Petite list used in FoFCou.
 Requested convergence on RMS density matrix=1.00D-08 within 128 cycles.
 Requested convergence on MAX density matrix=1.00D-06.
 Requested convergence on             energy=1.00D-06.
 No special actions if energy rises.
 Inv3:  Mode=1 IEnd=     6777027.
 Iteration    1 A*A^-1 deviation from unit magnitude is 5.55D-15 for   1502.
 Iteration    1 A*A^-1 deviation from orthogonality  is 2.72D-15 for   1492   1382.
 Iteration    1 A^-1*A deviation from unit magnitude is 5.44D-15 for   1502.
 Iteration    1 A^-1*A deviation from orthogonality  is 3.04D-15 for   1159    227.
 Error on total polarization charges =  0.01335
 SCF Done:  E(RB3LYP) =  -806.379441709     A.U. after   13 cycles
            NFock= 13  Conv=0.50D-08     -V/T= 2.0059
 SMD-CDS (non-electrostatic) energy       (kcal/mol) =      -4.17
 (included in total energy above)

 **********************************************************************

            Population analysis using the SCF Density.

 **********************************************************************

 Orbital symmetries:
       Occupied  (A) (A) (A) (A) (A) (A) (A) (A) (A) (A) (A) (A)
                 (A) (A) (A) (A) (A) (A) (A) (A) (A) (A) (A) (A)
                 (A) (A) (A) (A) (A) (A) (A) (A) (A) (A) (A) (A)
                 (A)
       Virtual   (A) (A) (A) (A) (A) (A) (A) (A) (A) (A) (A) (A)
                 (A) (A) (A) (A) (A) (A) (A) (A) (A) (A) (A) (A)
                 (A) (A) (A) (A) (A) (A) (A) (A) (A) (A) (A) (A)
                 (A) (A) (A) (A) (A) (A) (A) (A) (A) (A) (A) (A)
                 (A) (A) (A) (A) (A) (A) (A) (A) (A) (A) (A) (A)
                 (A) (A) (A) (A) (A) (A) (A) (A) (A) (A) (A) (A)
                 (A) (A) (A) (A) (A) (A) (A) (A) (A) (A) (A) (A)
                 (A) (A) (A) (A) (A) (A) (A) (A) (A) (A) (A) (A)
                 (A) (A) (A) (A) (A) (A) (A) (A) (A) (A) (A) (A)
                 (A) (A) (A) (A) (A) (A) (A) (A)
 The electronic state is 1-A.
 Alpha  occ. eigenvalues -- -101.54894 -19.16254 -10.25002 -10.24659 -10.20533
 Alpha  occ. eigenvalues --  -10.20193 -10.20078 -10.19878 -10.17693  -9.46514
 Alpha  occ. eigenvalues --   -7.22903  -7.21945  -7.21916  -1.02994  -0.88728
 Alpha  occ. eigenvalues --   -0.83459  -0.77360  -0.72912  -0.69095  -0.61278
 Alpha  occ. eigenvalues --   -0.58690  -0.53515  -0.48646  -0.47853  -0.44615
 Alpha  occ. eigenvalues --   -0.43026  -0.41517  -0.40379  -0.39658  -0.38313
 Alpha  occ. eigenvalues --   -0.36541  -0.35956  -0.32152  -0.31207  -0.29450
 Alpha  occ. eigenvalues --   -0.25525  -0.23661
 Alpha virt. eigenvalues --   -0.00830  -0.00498   0.02982   0.07309   0.12162
 Alpha virt. eigenvalues --    0.13003   0.14502   0.15714   0.17353   0.18592
 Alpha virt. eigenvalues --    0.20173   0.22362   0.23445   0.29249   0.29461
 Alpha virt. eigenvalues --    0.32338   0.34904   0.40714   0.41275   0.43395
 Alpha virt. eigenvalues --    0.44232   0.50137   0.51191   0.51815   0.54031
 Alpha virt. eigenvalues --    0.54464   0.54995   0.58852   0.59808   0.60570
 Alpha virt. eigenvalues --    0.61077   0.62939   0.63997   0.66309   0.68833
 Alpha virt. eigenvalues --    0.69662   0.74662   0.76230   0.78043   0.79904
 Alpha virt. eigenvalues --    0.83064   0.83315   0.85010   0.86957   0.87370
 Alpha virt. eigenvalues --    0.88574   0.91032   0.92183   0.93411   0.94478
 Alpha virt. eigenvalues --    0.95687   0.97271   1.01879   1.02995   1.06609
 Alpha virt. eigenvalues --    1.08897   1.10105   1.12705   1.14358   1.19370
 Alpha virt. eigenvalues --    1.23594   1.23766   1.34599   1.35675   1.36387
 Alpha virt. eigenvalues --    1.38504   1.44434   1.44619   1.47907   1.49153
 Alpha virt. eigenvalues --    1.54606   1.66774   1.74529   1.76629   1.78232
 Alpha virt. eigenvalues --    1.82543   1.83670   1.85261   1.89659   1.91080
 Alpha virt. eigenvalues --    1.97030   1.99102   1.99316   2.06817   2.09924
 Alpha virt. eigenvalues --    2.16084   2.16687   2.21840   2.25845   2.28184
 Alpha virt. eigenvalues --    2.30032   2.30249   2.32923   2.36140   2.42659
 Alpha virt. eigenvalues --    2.50617   2.52900   2.61390   2.64983   2.68178
 Alpha virt. eigenvalues --    2.71837   2.75587   2.79565   2.83589   2.98867
 Alpha virt. eigenvalues --    3.11020   3.37855   3.91656   4.05331   4.10511
 Alpha virt. eigenvalues --    4.13093   4.26581   4.29229   4.38912   4.40781
 Alpha virt. eigenvalues --    4.73273
          Condensed to atoms (all electrons):
               1          2          3          4          5          6
     1  C    4.962127   0.487434  -0.017490  -0.026789  -0.039092   0.527800
     2  C    0.487434   5.038268   0.502659  -0.070527  -0.047427  -0.025716
     3  C   -0.017490   0.502659   4.669664   0.485013  -0.009902  -0.042240
     4  C   -0.026789  -0.070527   0.485013   4.800793   0.530133  -0.025473
     5  C   -0.039092  -0.047427  -0.009902   0.530133   5.035758   0.493704
     6  C    0.527800  -0.025716  -0.042240  -0.025473   0.493704   4.982204
     7  H    0.358520  -0.030710   0.003197   0.000542   0.004108  -0.041553
     8  H   -0.037915   0.347343  -0.033063   0.005283   0.000544   0.004325
     9  H    0.004277   0.000147   0.004454  -0.030976   0.356729  -0.046655
    10  O    0.004048  -0.057503   0.270190  -0.072477   0.003758   0.000045
    11  H   -0.000105  -0.002010  -0.021791  -0.000945  -0.000034   0.000009
    12  C   -0.000005   0.008272  -0.057607   0.348782  -0.057998   0.007432
    13  H    0.000012   0.000064  -0.004390  -0.026137   0.000734  -0.000182
    14  H    0.000027  -0.000081  -0.004108  -0.025810   0.001262  -0.000212
    15  H   -0.000002  -0.000156   0.004529  -0.030832  -0.002080   0.000191
    16  Cl  -0.064055   0.003738   0.000788   0.003440  -0.062157   0.226396
               7          8          9         10         11         12
     1  C    0.358520  -0.037915   0.004277   0.004048  -0.000105  -0.000005
     2  C   -0.030710   0.347343   0.000147  -0.057503  -0.002010   0.008272
     3  C    0.003197  -0.033063   0.004454   0.270190  -0.021791  -0.057607
     4  C    0.000542   0.005283  -0.030976  -0.072477  -0.000945   0.348782
     5  C    0.004108   0.000544   0.356729   0.003758  -0.000034  -0.057998
     6  C   -0.041553   0.004325  -0.046655   0.000045   0.000009   0.007432
     7  H    0.545733  -0.005774  -0.000171  -0.000049   0.000002   0.000006
     8  H   -0.005774   0.560340   0.000015   0.000177   0.000237  -0.000178
     9  H   -0.000171   0.000015   0.552535  -0.000047   0.000004  -0.010462
    10  O   -0.000049   0.000177  -0.000047   8.285103   0.240924   0.000204
    11  H    0.000002   0.000237   0.000004   0.240924   0.361945   0.000016
    12  C    0.000006  -0.000178  -0.010462   0.000204   0.000016   5.166512
    13  H   -0.000000   0.000002   0.000174   0.003052  -0.000498   0.373477
    14  H   -0.000000  -0.000001   0.000192   0.002598   0.001560   0.366972
    15  H    0.000000   0.000002   0.005964   0.000485  -0.000030   0.364122
    16  Cl  -0.000135  -0.000140   0.000257   0.000001  -0.000000  -0.000171
              13         14         15         16
     1  C    0.000012   0.000027  -0.000002  -0.064055
     2  C    0.000064  -0.000081  -0.000156   0.003738
     3  C   -0.004390  -0.004108   0.004529   0.000788
     4  C   -0.026137  -0.025810  -0.030832   0.003440
     5  C    0.000734   0.001262  -0.002080  -0.062157
     6  C   -0.000182  -0.000212   0.000191   0.226396
     7  H   -0.000000  -0.000000   0.000000  -0.000135
     8  H    0.000002  -0.000001   0.000002  -0.000140
     9  H    0.000174   0.000192   0.005964   0.000257
    10  O    0.003052   0.002598   0.000485   0.000001
    11  H   -0.000498   0.001560  -0.000030  -0.000000
    12  C    0.373477   0.366972   0.364122  -0.000171
    13  H    0.525037  -0.028841  -0.026626   0.000003
    14  H   -0.028841   0.548013  -0.027696   0.000003
    15  H   -0.026626  -0.027696   0.548579  -0.000011
    16  Cl   0.000003   0.000003  -0.000011  16.930689
 Mulliken charges:
               1
     1  C   -0.158792
     2  C   -0.153796
     3  C    0.250096
     4  C    0.135977
     5  C   -0.208040
     6  C   -0.060075
     7  H    0.166282
     8  H    0.158800
     9  H    0.163563
    10  O   -0.680510
    11  H    0.420716
    12  C   -0.509374
    13  H    0.184117
    14  H    0.166121
    15  H    0.163562
    16  Cl  -0.038647
 Sum of Mulliken charges =  -0.00000
 Mulliken charges with hydrogens summed into heavy atoms:
               1
     1  C    0.007490
     2  C    0.005004
     3  C    0.250096
     4  C    0.135977
     5  C   -0.044477
     6  C   -0.060075
    10  O   -0.259794
    12  C    0.004426
    16  Cl  -0.038647
 Electronic spatial extent (au):  <R**2>=           1594.1916
 Charge=             -0.0000 electrons
 Dipole moment (field-independent basis, Debye):
    X=             -1.9259    Y=              0.0055    Z=              1.5706  Tot=              2.4851
 Quadrupole moment (field-independent basis, Debye-Ang):
   XX=            -61.5858   YY=            -52.7315   ZZ=            -59.5744
   XY=             -1.6986   XZ=             -5.6168   YZ=             -1.5991
 Traceless Quadrupole moment (field-independent basis, Debye-Ang):
   XX=             -3.6219   YY=              5.2324   ZZ=             -1.6104
   XY=             -1.6986   XZ=             -5.6168   YZ=             -1.5991
 Octapole moment (field-independent basis, Debye-Ang**2):
  XXX=            -16.9571  YYY=             -6.0962  ZZZ=              2.1798  XYY=             -0.8074
  XXY=             -0.7735  XXZ=             19.1926  XZZ=             -7.9826  YZZ=             -0.4723
  YYZ=              1.3718  XYZ=              5.6041
 Hexadecapole moment (field-independent basis, Debye-Ang**3):
 XXXX=          -1411.1682 YYYY=           -487.7568 ZZZZ=            -68.6763 XXXY=             12.4944
 XXXZ=            -65.9805 YYYX=             12.0332 YYYZ=             -2.0649 ZZZX=             -6.7969
 ZZZY=             -2.2365 XXYY=           -319.8182 XXZZ=           -234.5782 YYZZ=           -103.5009
 XXYZ=            -18.7756 YYXZ=             -5.3430 ZZXY=              6.4397
 N-N= 4.799602686771D+02 E-N=-2.858263297919D+03  KE= 8.016383587707D+02
 D1PCM: PCM CHGder 1st derivatives, ID1Alg=3 FixD1E=F DoIter=F DoCFld=F I1PDM=0.
 Calling FoFJK, ICntrl=      2127 FMM=F ISym2X=0 I1Cent= 0 IOpClX= 0 NMat=1 NMatS=1 NMatT=0.
 ***** Axes restored to original set *****
 -------------------------------------------------------------------
 Center     Atomic                   Forces (Hartrees/Bohr)
 Number     Number              X              Y              Z
 -------------------------------------------------------------------
      1        6          -0.008850860   -0.011786520    0.000725689
      2        6           0.005538923   -0.006847210    0.000680140
      3        6           0.020680505   -0.006685709   -0.007369095
      4        6           0.011514123    0.023149152    0.001296238
      5        6          -0.009628560    0.004501781    0.000833544
      6        6           0.007798380   -0.000556130   -0.000213994
      7        1           0.004730195    0.008077617    0.000018965
      8        1          -0.003896852    0.008398770   -0.000106148
      9        1           0.005081901   -0.007978510    0.000031217
     10        8          -0.028495830   -0.000075151    0.016411568
     11        1           0.000602591    0.000068850   -0.011571203
     12        6          -0.019911662   -0.031031197    0.000578401
     13        1           0.012337801    0.002711684    0.011947709
     14        1           0.011878500    0.004156732   -0.013263041
     15        1          -0.008908673    0.013927135    0.000058703
     16       17          -0.000470484   -0.000031296   -0.000058693
 -------------------------------------------------------------------
 Cartesian Forces:  Max     0.031031197 RMS     0.010622154

 GradGradGradGradGradGradGradGradGradGradGradGradGradGradGradGradGradGrad
 Berny optimization.
 FormGI is forming the generalized inverse of G from B-inverse, IUseBI=4.
 Internal  Forces:  Max     0.027889620 RMS     0.005878511
 Search for a local minimum.
 Step number   1 out of a maximum of   83
 All quantities printed in internal units (Hartrees-Bohrs-Radians)
 Mixed Optimization -- RFO/linear search
 Second derivative matrix not updated -- first step.
 ITU=  0
     Eigenvalues ---    0.00237   0.01295   0.01387   0.01998   0.02152
     Eigenvalues ---    0.02154   0.02155   0.02155   0.02155   0.02156
     Eigenvalues ---    0.02157   0.07243   0.07243   0.16000   0.16000
     Eigenvalues ---    0.16000   0.16000   0.16000   0.16000   0.16000
     Eigenvalues ---    0.22375   0.23492   0.24610   0.25000   0.25000
     Eigenvalues ---    0.25000   0.28519   0.29539   0.33709   0.33720
     Eigenvalues ---    0.33725   0.37230   0.37230   0.37230   0.40989
     Eigenvalues ---    0.42245   0.42541   0.46412   0.46453   0.46466
     Eigenvalues ---    0.46497   0.55473
 RFO step:  Lambda=-7.44847648D-03 EMin= 2.36824180D-03
 Linear search not attempted -- first point.
 Iteration  1 RMS(Cart)=  0.02406826 RMS(Int)=  0.00039629
 Iteration  2 RMS(Cart)=  0.00037619 RMS(Int)=  0.00015828
 Iteration  3 RMS(Cart)=  0.00000017 RMS(Int)=  0.00015828
 Variable       Old X    -DE/DX   Delta X   Delta X   Delta X     New X
                                 (Linear)    (Quad)   (Total)
    R1        2.63647  -0.00128   0.00000  -0.00296  -0.00299   2.63348
    R2        2.63584  -0.00142   0.00000  -0.00324  -0.00333   2.63251
    R3        2.07796  -0.00936   0.00000  -0.02716  -0.02716   2.05081
    R4        2.63562  -0.00087   0.00000  -0.00186  -0.00180   2.63383
    R5        2.07805  -0.00922   0.00000  -0.02676  -0.02676   2.05129
    R6        2.63697   0.00424   0.00000   0.00923   0.00932   2.64629
    R7        2.70231  -0.02789   0.00000  -0.06683  -0.06683   2.63548
    R8        2.63584   0.00261   0.00000   0.00580   0.00582   2.64166
    R9        2.91018  -0.01117   0.00000  -0.03816  -0.03816   2.87202
   R10        2.63643   0.00082   0.00000   0.00176   0.00170   2.63813
   R11        2.07825  -0.00945   0.00000  -0.02743  -0.02743   2.05082
   R12        3.32592   0.00047   0.00000   0.00155   0.00155   3.32747
   R13        1.81414   0.01111   0.00000   0.01975   0.01975   1.83389
   R14        2.02201   0.01705   0.00000   0.04490   0.04490   2.06691
   R15        2.02201   0.01785   0.00000   0.04701   0.04701   2.06902
   R16        2.02201   0.01637   0.00000   0.04311   0.04311   2.06512
    A1        2.09437  -0.00423   0.00000  -0.01932  -0.01935   2.07502
    A2        2.09435   0.00205   0.00000   0.00929   0.00931   2.10366
    A3        2.09447   0.00217   0.00000   0.01003   0.01004   2.10451
    A4        2.09455   0.00031   0.00000   0.00108   0.00120   2.09574
    A5        2.09406   0.00070   0.00000   0.00455   0.00448   2.09854
    A6        2.09458  -0.00101   0.00000  -0.00565  -0.00572   2.08886
    A7        2.09429   0.00594   0.00000   0.02374   0.02344   2.11774
    A8        2.09462  -0.00295   0.00000  -0.01179  -0.01242   2.08220
    A9        2.09427  -0.00298   0.00000  -0.01193  -0.01256   2.08172
   A10        2.09429  -0.00792   0.00000  -0.02955  -0.02935   2.06494
   A11        2.09407   0.00269   0.00000   0.00983   0.00973   2.10380
   A12        2.09483   0.00523   0.00000   0.01971   0.01961   2.11444
   A13        2.09448   0.00069   0.00000   0.00396   0.00400   2.09848
   A14        2.09459  -0.00077   0.00000  -0.00452  -0.00454   2.09006
   A15        2.09411   0.00008   0.00000   0.00056   0.00054   2.09465
   A16        2.09440   0.00520   0.00000   0.02009   0.02001   2.11441
   A17        2.09453  -0.00266   0.00000  -0.01026  -0.01022   2.08431
   A18        2.09426  -0.00255   0.00000  -0.00983  -0.00980   2.08446
   A19        1.91114  -0.00599   0.00000  -0.03575  -0.03575   1.87539
   A20        1.91063   0.00292   0.00000   0.01680   0.01665   1.92728
   A21        1.91063   0.00412   0.00000   0.02320   0.02303   1.93367
   A22        1.91063   0.00215   0.00000   0.01490   0.01470   1.92533
   A23        1.91063  -0.00430   0.00000  -0.02978  -0.02989   1.88074
   A24        1.91063  -0.00201   0.00000  -0.00926  -0.00945   1.90119
   A25        1.91063  -0.00288   0.00000  -0.01586  -0.01606   1.89457
    D1        0.00056  -0.00005   0.00000  -0.00226  -0.00225  -0.00168
    D2        3.14078  -0.00028   0.00000  -0.01014  -0.01013   3.13064
    D3       -3.14112  -0.00001   0.00000  -0.00064  -0.00063   3.14143
    D4       -0.00091  -0.00024   0.00000  -0.00852  -0.00852  -0.00943
    D5        0.00026  -0.00017   0.00000  -0.00623  -0.00623  -0.00597
    D6        3.14140  -0.00003   0.00000  -0.00093  -0.00093   3.14047
    D7       -3.14124  -0.00021   0.00000  -0.00785  -0.00785   3.13409
    D8       -0.00010  -0.00007   0.00000  -0.00256  -0.00255  -0.00265
    D9       -0.00099   0.00024   0.00000   0.00984   0.00999   0.00900
   D10        3.14093  -0.00140   0.00000  -0.05015  -0.05022   3.09071
   D11       -3.14120   0.00048   0.00000   0.01771   0.01783  -3.12338
   D12        0.00072  -0.00117   0.00000  -0.04228  -0.04239  -0.04167
   D13        0.00060  -0.00023   0.00000  -0.00896  -0.00904  -0.00845
   D14       -3.14153  -0.00027   0.00000  -0.01108  -0.01114   3.13051
   D15       -3.14132   0.00142   0.00000   0.05102   0.05115  -3.09017
   D16       -0.00026   0.00137   0.00000   0.04889   0.04905   0.04879
   D17        1.56987   0.00090   0.00000   0.03354   0.03303   1.60290
   D18       -1.57140  -0.00075   0.00000  -0.02645  -0.02593  -1.59733
   D19        0.00023   0.00001   0.00000   0.00048   0.00053   0.00075
   D20       -3.14158   0.00004   0.00000   0.00158   0.00161  -3.13997
   D21       -3.14083   0.00005   0.00000   0.00261   0.00264  -3.13819
   D22        0.00054   0.00009   0.00000   0.00371   0.00373   0.00427
   D23       -1.01217   0.00060   0.00000   0.01238   0.01242  -0.99975
   D24        1.08222  -0.00035   0.00000   0.00040   0.00038   1.08260
   D25       -3.10657  -0.00004   0.00000   0.00431   0.00434  -3.10223
   D26        2.12889   0.00055   0.00000   0.01024   0.01025   2.13914
   D27       -2.05990  -0.00040   0.00000  -0.00174  -0.00180  -2.06170
   D28        0.03449  -0.00009   0.00000   0.00217   0.00216   0.03665
   D29       -0.00066   0.00019   0.00000   0.00711   0.00712   0.00646
   D30        3.14138   0.00005   0.00000   0.00182   0.00182  -3.13998
   D31        3.14116   0.00016   0.00000   0.00601   0.00603  -3.13600
   D32        0.00001   0.00002   0.00000   0.00072   0.00073   0.00074
         Item               Value     Threshold  Converged?
 Maximum Force            0.027890     0.000450     NO 
 RMS     Force            0.005879     0.000300     NO 
 Maximum Displacement     0.091501     0.001800     NO 
 RMS     Displacement     0.024191     0.001200     NO 
 Predicted change in Energy=-3.851012D-03
 GradGradGradGradGradGradGradGradGradGradGradGradGradGradGradGradGradGrad

                          Input orientation:                          
 ---------------------------------------------------------------------
 Center     Atomic      Atomic             Coordinates (Angstroms)
 Number     Number       Type             X           Y           Z
 ---------------------------------------------------------------------
      1          6           0        1.205617   -0.501284   -0.003898
      2          6           0        2.599116   -0.488605   -0.011730
      3          6           0        3.286583    0.723783   -0.020538
      4          6           0        2.605481    1.947308   -0.010985
      5          6           0        1.207735    1.927979   -0.002639
      6          6           0        0.521519    0.712239   -0.002999
      7          1           0        0.662874   -1.441035    0.002835
      8          1           0        3.154329   -1.421316   -0.002317
      9          1           0        0.656243    2.862633    0.003322
     10          8           0        4.680160    0.718613    0.033564
     11          1           0        5.006903    0.720234   -0.880229
     12          6           0        3.373593    3.258719   -0.006337
     13          1           0        4.047779    3.303147    0.853787
     14          1           0        3.980898    3.356617   -0.912070
     15          1           0        2.681849    4.103377    0.041416
     16         17           0       -1.239284    0.712588    0.005138
 ---------------------------------------------------------------------
                    Distance matrix (angstroms):
                    1          2          3          4          5
     1  C    0.000000
     2  C    1.393578   0.000000
     3  C    2.414847   1.393762   0.000000
     4  C    2.820509   2.435922   1.400359   0.000000
     5  C    2.429265   2.788530   2.402502   1.397904   0.000000
     6  C    1.393065   2.399690   2.765144   2.422469   1.396036
     7  H    1.085240   2.157862   3.401592   3.905737   3.412794
     8  H    2.154980   1.085496   2.149250   3.413055   3.873888
     9  H    3.408490   3.873729   3.390271   2.153497   1.085245
    10  O    3.682662   2.406277   1.394637   2.411633   3.677175
    11  H    4.087767   2.830728   1.923170   2.833395   4.081971
    12  C    4.340248   3.826523   2.536469   1.519808   2.542012
    13  H    4.825682   4.150316   2.827894   2.160174   3.269618
    14  H    4.838426   4.183977   2.865086   2.165613   3.249386
    15  H    4.835724   4.593035   3.433832   2.158058   2.628176
    16  Cl   2.729672   4.021998   4.525954   4.038194   2.732241
                    6          7          8          9         10
     6  C    0.000000
     7  H    2.157917   0.000000
     8  H    3.388768   2.491538   0.000000
     9  H    2.154620   4.303674   4.959102   0.000000
    10  O    4.158807   4.561097   2.628449   4.559566   0.000000
    11  H    4.570368   4.931680   2.964625   4.929379   0.970454
    12  C    3.823467   5.425474   4.685171   2.746082   2.856720
    13  H    4.458856   5.889734   4.883822   3.524182   2.784329
    14  H    4.448196   5.904558   4.933509   3.483575   2.888296
    15  H    4.021047   5.900700   5.545033   2.375705   3.930641
    16  Cl   1.760822   2.873378   4.884408   2.866308   5.919516
                   11         12         13         14         15
    11  H    0.000000
    12  C    3.142498   0.000000
    13  H    3.255483   1.093762   0.000000
    14  H    2.829172   1.094877   1.767932   0.000000
    15  H    4.207251   1.092812   1.779348   1.776039   0.000000
    16  Cl   6.308628   5.268923   5.948465   5.923045   5.184019
                   16
    16  Cl   0.000000
 Stoichiometry    C7H7ClO
 Framework group  C1[X(C7H7ClO)]
 Deg. of freedom    42
 Full point group                 C1      NOp   1
 Largest Abelian subgroup         C1      NOp   1
 Largest concise Abelian subgroup C1      NOp   1
                         Standard orientation:                         
 ---------------------------------------------------------------------
 Center     Atomic      Atomic             Coordinates (Angstroms)
 Number     Number       Type             X           Y           Z
 ---------------------------------------------------------------------
      1          6           0        0.767925   -1.391544   -0.010615
      2          6           0       -0.602443   -1.644758   -0.016617
      3          6           0       -1.508503   -0.585717   -0.008789
      4          6           0       -1.073114    0.745234   -0.005623
      5          6           0        0.302695    0.992733   -0.000126
      6          6           0        1.208085   -0.069897    0.001187
      7          1           0        1.479923   -2.210551   -0.016489
      8          1           0       -0.969534   -2.666112   -0.036084
      9          1           0        0.665900    2.015388    0.003941
     10          8           0       -2.874996   -0.856055   -0.076808
     11          1           0       -3.204141   -0.922826    0.833678
     12          6           0       -2.077098    1.886198   -0.011575
     13          1           0       -2.739736    1.807033   -0.878154
     14          1           0       -2.699933    1.860514    0.888521
     15          1           0       -1.558690    2.847520   -0.048336
     16         17           0        2.936523    0.266117    0.010608
 ---------------------------------------------------------------------
 Rotational constants (GHZ):           2.9860000           0.8569826           0.6700519
 Standard basis: 6-31G(d) (6D, 7F)
 There are   153 symmetry adapted cartesian basis functions of A   symmetry.
 There are   153 symmetry adapted basis functions of A   symmetry.
   153 basis functions,   304 primitive gaussians,   153 cartesian basis functions
    37 alpha electrons       37 beta electrons
       nuclear repulsion energy       481.5192150349 Hartrees.
 NAtoms=   16 NActive=   16 NUniq=   16 SFac= 1.00D+00 NAtFMM=   60 NAOKFM=F Big=F
 Integral buffers will be    131072 words long.
 Raffenetti 2 integral format.
 Two-electron integral symmetry is turned on.
 ------------------------------------------------------------------------------
 Polarizable Continuum Model (PCM)
 =================================
 Model                : PCM.
 Atomic radii         : SMD-Coulomb.
 Polarization charges : Total charges.
 Charge compensation  : None.
 Solution method      : On-the-fly selection.
 Cavity type          : VdW (van der Waals Surface) (Alpha=1.000).
 Cavity algorithm     : GePol (No added spheres)
                        Default sphere list used, NSphG=   16.
                        Lebedev-Laikov grids with approx.  5.0 points / Ang**2.
                        Smoothing algorithm: York/Karplus (Gamma=1.0000).
                        Polarization charges: spherical gaussians, with
                                              point-specific exponents (IZeta= 3).
                        Self-potential: point-specific (ISelfS= 7).
                        Self-field    : sphere-specific E.n sum rule (ISelfD= 2).
 1st derivatives      : Analytical E(r).r(x)/FMM algorithm (CHGder, D1EAlg=3).
                        Cavity 1st derivative terms included.
 Solvent              : Toluene, Eps=   2.374100 Eps(inf)=   2.238315
 ------------------------------------------------------------------------------
 Spheres list:
 ISph  on   Nord     Re0    Alpha      Xe            Ye            Ze
    1   C      1    1.8500  1.000      0.767925     -1.391544     -0.010615
    2   C      2    1.8500  1.000     -0.602443     -1.644758     -0.016617
    3   C      3    1.8500  1.000     -1.508503     -0.585717     -0.008789
    4   C      4    1.8500  1.000     -1.073114      0.745234     -0.005623
    5   C      5    1.8500  1.000      0.302695      0.992733     -0.000126
    6   C      6    1.8500  1.000      1.208085     -0.069897      0.001187
    7   H      7    1.2000  1.000      1.479923     -2.210551     -0.016489
    8   H      8    1.2000  1.000     -0.969534     -2.666112     -0.036084
    9   H      9    1.2000  1.000      0.665900      2.015388      0.003941
   10   O     10    2.2940  1.000     -2.874996     -0.856055     -0.076808
   11   H     11    1.2000  1.000     -3.204141     -0.922826      0.833678
   12   C     12    1.8500  1.000     -2.077098      1.886198     -0.011575
   13   H     13    1.2000  1.000     -2.739736      1.807033     -0.878154
   14   H     14    1.2000  1.000     -2.699933      1.860514      0.888521
   15   H     15    1.2000  1.000     -1.558690      2.847520     -0.048336
   16  Cl     16    2.3800  1.000      2.936523      0.266117      0.010608
 ------------------------------------------------------------------------------
 ------------------------------------------------------------------------------
 Atomic radii for non-electrostatic terms: SMD-CDS.
 ------------------------------------------------------------------------------
 Nuclear repulsion after PCM non-electrostatic terms =      481.5124803112 Hartrees.
 One-electron integrals computed using PRISM.
 NBasis=   153 RedAO= T EigKep=  4.03D-04  NBF=   153
 NBsUse=   153 1.00D-06 EigRej= -1.00D+00 NBFU=   153
 Initial guess from the checkpoint file:  "HClbz.chk"
 B after Tr=     0.000000    0.000000    0.000000
         Rot=    0.999993    0.000245   -0.000061   -0.003618 Ang=   0.42 deg.
 ExpMin= 1.43D-01 ExpMax= 2.52D+04 ExpMxC= 3.78D+03 IAcc=3 IRadAn=         5 AccDes= 0.00D+00
 Harris functional with IExCor=  402 and IRadAn=       5 diagonalized for initial guess.
 HarFok:  IExCor=  402 AccDes= 0.00D+00 IRadAn=         5 IDoV= 1 UseB2=F ITyADJ=14
 ICtDFT=  3500011 ScaDFX=  1.000000  1.000000  1.000000  1.000000
 FoFCou: FMM=F IPFlag=           0 FMFlag=      100000 FMFlg1=           0
         NFxFlg=           0 DoJE=T BraDBF=F KetDBF=T FulRan=T
         wScrn=  0.000000 ICntrl=       500 IOpCl=  0 I1Cent=   200000004 NGrid=           0
         NMat0=    1 NMatS0=      1 NMatT0=    0 NMatD0=    1 NMtDS0=    0 NMtDT0=    0
 Petite list used in FoFCou.
 Requested convergence on RMS density matrix=1.00D-08 within 128 cycles.
 Requested convergence on MAX density matrix=1.00D-06.
 Requested convergence on             energy=1.00D-06.
 No special actions if energy rises.
 Inv3:  Mode=1 IEnd=     6714048.
 Iteration    1 A*A^-1 deviation from unit magnitude is 3.11D-15 for   1483.
 Iteration    1 A*A^-1 deviation from orthogonality  is 1.91D-15 for    852    346.
 Iteration    1 A^-1*A deviation from unit magnitude is 3.33D-15 for   1493.
 Iteration    1 A^-1*A deviation from orthogonality  is 1.22D-15 for   1486   1484.
 Error on total polarization charges =  0.01346
 SCF Done:  E(RB3LYP) =  -806.383485238     A.U. after   11 cycles
            NFock= 11  Conv=0.42D-08     -V/T= 2.0059
 SMD-CDS (non-electrostatic) energy       (kcal/mol) =      -4.23
 (included in total energy above)
 D1PCM: PCM CHGder 1st derivatives, ID1Alg=3 FixD1E=F DoIter=F DoCFld=F I1PDM=0.
 Calling FoFJK, ICntrl=      2127 FMM=F ISym2X=0 I1Cent= 0 IOpClX= 0 NMat=1 NMatS=1 NMatT=0.
 ***** Axes restored to original set *****
 -------------------------------------------------------------------
 Center     Atomic                   Forces (Hartrees/Bohr)
 Number     Number              X              Y              Z
 -------------------------------------------------------------------
      1        6          -0.002352326   -0.001269536   -0.000253595
      2        6          -0.001051097    0.000881905    0.000283526
      3        6           0.006671226   -0.002654202    0.001972507
      4        6           0.001749945    0.007732133    0.000160151
      5        6          -0.002237921   -0.001652312   -0.000332648
      6        6           0.003897285    0.000770218    0.000167086
      7        1          -0.000160474    0.000270153   -0.000000670
      8        1           0.000891462    0.000342115   -0.000044851
      9        1          -0.000361860    0.000068726    0.000053883
     10        8          -0.005703981   -0.000331335   -0.001214836
     11        1           0.002845872    0.000209083   -0.000712215
     12        6          -0.005656083   -0.008418652    0.000437889
     13        1           0.001376454    0.001153280   -0.000017182
     14        1           0.001381525    0.001401097   -0.000375489
     15        1           0.000623898    0.001244510   -0.000158321
     16       17          -0.001913926    0.000252817    0.000034765
 -------------------------------------------------------------------
 Cartesian Forces:  Max     0.008418652 RMS     0.002545641

 GradGradGradGradGradGradGradGradGradGradGradGradGradGradGradGradGradGrad
 Berny optimization.
 Using GEDIIS/GDIIS optimizer.
 FormGI is forming the generalized inverse of G from B-inverse, IUseBI=4.
 Internal  Forces:  Max     0.005135929 RMS     0.001202167
 Search for a local minimum.
 Step number   2 out of a maximum of   83
 All quantities printed in internal units (Hartrees-Bohrs-Radians)
 Mixed Optimization -- RFO/linear search
 Update second derivatives using D2CorX and points    1    2
 DE= -4.04D-03 DEPred=-3.85D-03 R= 1.05D+00
 TightC=F SS=  1.41D+00  RLast= 1.85D-01 DXNew= 5.0454D-01 5.5454D-01
 Trust test= 1.05D+00 RLast= 1.85D-01 DXMaxT set to 5.05D-01
 ITU=  1  0
 Use linear search instead of GDIIS.
     Eigenvalues ---    0.00237   0.01294   0.01366   0.02056   0.02154
     Eigenvalues ---    0.02154   0.02155   0.02155   0.02156   0.02157
     Eigenvalues ---    0.02173   0.07018   0.07033   0.14942   0.15999
     Eigenvalues ---    0.16000   0.16000   0.16000   0.16000   0.16710
     Eigenvalues ---    0.21963   0.23462   0.24776   0.24959   0.24994
     Eigenvalues ---    0.25114   0.26941   0.29523   0.33711   0.33719
     Eigenvalues ---    0.34211   0.37122   0.37230   0.37535   0.39866
     Eigenvalues ---    0.42331   0.43047   0.46420   0.46454   0.46494
     Eigenvalues ---    0.46837   0.55228
 RFO step:  Lambda=-4.66342917D-04 EMin= 2.36826834D-03
 Quartic linear search produced a step of  0.09165.
 Iteration  1 RMS(Cart)=  0.00824548 RMS(Int)=  0.00011965
 Iteration  2 RMS(Cart)=  0.00011379 RMS(Int)=  0.00002649
 Iteration  3 RMS(Cart)=  0.00000002 RMS(Int)=  0.00002649
 Variable       Old X    -DE/DX   Delta X   Delta X   Delta X     New X
                                 (Linear)    (Quad)   (Total)
    R1        2.63348   0.00157  -0.00027   0.00374   0.00346   2.63694
    R2        2.63251  -0.00038  -0.00031  -0.00106  -0.00138   2.63113
    R3        2.05081  -0.00015  -0.00249   0.00030  -0.00219   2.04862
    R4        2.63383   0.00057  -0.00016   0.00161   0.00146   2.63528
    R5        2.05129   0.00016  -0.00245   0.00131  -0.00114   2.05015
    R6        2.64629   0.00316   0.00085   0.00742   0.00829   2.65458
    R7        2.63548  -0.00293  -0.00612  -0.00585  -0.01198   2.62350
    R8        2.64166   0.00157   0.00053   0.00356   0.00410   2.64576
    R9        2.87202  -0.00514  -0.00350  -0.01849  -0.02198   2.85004
   R10        2.63813  -0.00132   0.00016  -0.00336  -0.00321   2.63491
   R11        2.05082   0.00024  -0.00251   0.00160  -0.00092   2.04990
   R12        3.32747   0.00191   0.00014   0.00702   0.00716   3.33463
   R13        1.83389   0.00163   0.00181   0.00264   0.00445   1.83834
   R14        2.06691   0.00088   0.00412   0.00128   0.00539   2.07230
   R15        2.06902   0.00120   0.00431   0.00214   0.00645   2.07547
   R16        2.06512   0.00056   0.00395   0.00038   0.00433   2.06944
    A1        2.07502  -0.00089  -0.00177  -0.00454  -0.00632   2.06869
    A2        2.10366   0.00073   0.00085   0.00420   0.00506   2.10871
    A3        2.10451   0.00016   0.00092   0.00034   0.00126   2.10577
    A4        2.09574   0.00112   0.00011   0.00581   0.00593   2.10167
    A5        2.09854   0.00040   0.00041   0.00351   0.00391   2.10245
    A6        2.08886  -0.00152  -0.00052  -0.00928  -0.00982   2.07905
    A7        2.11774  -0.00123   0.00215  -0.00515  -0.00303   2.11471
    A8        2.08220   0.00049  -0.00114   0.00222   0.00102   2.08322
    A9        2.08172   0.00074  -0.00115   0.00332   0.00211   2.08383
   A10        2.06494  -0.00054  -0.00269  -0.00095  -0.00362   2.06132
   A11        2.10380  -0.00024   0.00089  -0.00157  -0.00069   2.10311
   A12        2.11444   0.00077   0.00180   0.00252   0.00431   2.11875
   A13        2.09848   0.00043   0.00037   0.00156   0.00193   2.10040
   A14        2.09006   0.00007  -0.00042   0.00123   0.00081   2.09087
   A15        2.09465  -0.00050   0.00005  -0.00278  -0.00274   2.09191
   A16        2.11441   0.00111   0.00183   0.00330   0.00513   2.11953
   A17        2.08431  -0.00013  -0.00094   0.00020  -0.00073   2.08358
   A18        2.08446  -0.00098  -0.00090  -0.00349  -0.00439   2.08007
   A19        1.87539   0.00447  -0.00328   0.03157   0.02829   1.90368
   A20        1.92728   0.00148   0.00153   0.00945   0.01090   1.93818
   A21        1.93367   0.00158   0.00211   0.00922   0.01126   1.94493
   A22        1.92533   0.00126   0.00135   0.00896   0.01022   1.93555
   A23        1.88074  -0.00184  -0.00274  -0.01327  -0.01606   1.86468
   A24        1.90119  -0.00119  -0.00087  -0.00621  -0.00717   1.89402
   A25        1.89457  -0.00145  -0.00147  -0.00919  -0.01073   1.88384
    D1       -0.00168  -0.00007  -0.00021  -0.00301  -0.00321  -0.00490
    D2        3.13064  -0.00000  -0.00093   0.00096   0.00005   3.13069
    D3        3.14143  -0.00002  -0.00006  -0.00078  -0.00084   3.14059
    D4       -0.00943   0.00005  -0.00078   0.00320   0.00243  -0.00700
    D5       -0.00597   0.00009  -0.00057   0.00484   0.00427  -0.00171
    D6        3.14047   0.00005  -0.00009   0.00247   0.00237  -3.14034
    D7        3.13409   0.00004  -0.00072   0.00261   0.00190   3.13599
    D8       -0.00265   0.00000  -0.00023   0.00024   0.00001  -0.00264
    D9        0.00900   0.00001   0.00092   0.00045   0.00139   0.01039
   D10        3.09071   0.00011  -0.00460   0.00816   0.00355   3.09426
   D11       -3.12338  -0.00006   0.00163  -0.00357  -0.00191  -3.12528
   D12       -0.04167   0.00003  -0.00388   0.00414   0.00026  -0.04141
   D13       -0.00845   0.00001  -0.00083   0.00033  -0.00050  -0.00895
   D14        3.13051   0.00006  -0.00102   0.00412   0.00308   3.13359
   D15       -3.09017  -0.00007   0.00469  -0.00735  -0.00263  -3.09280
   D16        0.04879  -0.00002   0.00450  -0.00356   0.00095   0.04974
   D17        1.60290   0.00018   0.00303   0.01151   0.01449   1.61739
   D18       -1.59733   0.00020  -0.00238   0.01877   0.01644  -1.58089
   D19        0.00075   0.00002   0.00005   0.00152   0.00156   0.00232
   D20       -3.13997  -0.00002   0.00015  -0.00091  -0.00077  -3.14074
   D21       -3.13819  -0.00002   0.00024  -0.00229  -0.00205  -3.14024
   D22        0.00427  -0.00007   0.00034  -0.00471  -0.00438  -0.00011
   D23       -0.99975   0.00022   0.00114   0.01230   0.01346  -0.98629
   D24        1.08260  -0.00011   0.00003   0.00775   0.00777   1.09037
   D25       -3.10223  -0.00008   0.00040   0.00811   0.00850  -3.09373
   D26        2.13914   0.00026   0.00094   0.01620   0.01715   2.15629
   D27       -2.06170  -0.00006  -0.00016   0.01164   0.01146  -2.05024
   D28        0.03665  -0.00003   0.00020   0.01200   0.01219   0.04885
   D29        0.00646  -0.00007   0.00065  -0.00413  -0.00349   0.00298
   D30       -3.13998  -0.00003   0.00017  -0.00175  -0.00159  -3.14157
   D31       -3.13600  -0.00002   0.00055  -0.00170  -0.00115  -3.13715
   D32        0.00074   0.00002   0.00007   0.00068   0.00075   0.00149
         Item               Value     Threshold  Converged?
 Maximum Force            0.005136     0.000450     NO 
 RMS     Force            0.001202     0.000300     NO 
 Maximum Displacement     0.039617     0.001800     NO 
 RMS     Displacement     0.008272     0.001200     NO 
 Predicted change in Energy=-2.630720D-04
 GradGradGradGradGradGradGradGradGradGradGradGradGradGradGradGradGradGrad

                          Input orientation:                          
 ---------------------------------------------------------------------
 Center     Atomic      Atomic             Coordinates (Angstroms)
 Number     Number       Type             X           Y           Z
 ---------------------------------------------------------------------
      1          6           0        1.200974   -0.504464   -0.005193
      2          6           0        2.596279   -0.488150   -0.010258
      3          6           0        3.288179    0.722606   -0.018391
      4          6           0        2.605315    1.950173   -0.009201
      5          6           0        1.205463    1.926180   -0.002635
      6          6           0        0.521772    0.710968   -0.002456
      7          1           0        0.656484   -1.441874    0.000205
      8          1           0        3.157206   -1.416743   -0.002310
      9          1           0        0.650372    2.858133    0.003717
     10          8           0        4.675464    0.714163    0.033939
     11          1           0        5.027868    0.729185   -0.872671
     12          6           0        3.368822    3.250806   -0.007798
     13          1           0        4.060005    3.300875    0.842099
     14          1           0        3.974389    3.361742   -0.917316
     15          1           0        2.685613    4.104785    0.048710
     16         17           0       -1.242810    0.716612    0.005879
 ---------------------------------------------------------------------
                    Distance matrix (angstroms):
                    1          2          3          4          5
     1  C    0.000000
     2  C    1.395410   0.000000
     3  C    2.421218   1.394532   0.000000
     4  C    2.827973   2.438339   1.404745   0.000000
     5  C    2.430649   2.786291   2.405524   1.400074   0.000000
     6  C    1.392335   2.396148   2.766477   2.424217   1.394336
     7  H    1.084084   2.161598   3.407512   3.912035   3.412503
     8  H    2.158497   1.084891   2.143415   3.411855   3.870974
     9  H    3.407389   3.870963   3.393964   2.155542   1.084759
    10  O    3.682209   2.402190   1.388298   2.411451   3.675763
    11  H    4.113335   2.852768   1.938132   2.846955   4.098846
    12  C    4.336084   3.817933   2.529508   1.508175   2.536688
    13  H    4.834518   4.150387   2.825532   2.159914   3.278990
    14  H    4.844724   4.188509   2.871235   2.166002   3.250297
    15  H    4.842750   4.594182   3.436091   2.156885   2.634350
    16  Cl   2.731891   4.023720   4.531058   4.041036   2.730781
                    6          7          8          9         10
     6  C    0.000000
     7  H    2.157055   0.000000
     8  H    3.387133   2.500850   0.000000
     9  H    2.151021   4.300013   4.955686   0.000000
    10  O    4.153853   4.560903   2.616712   4.560580   0.000000
    11  H    4.589391   4.958267   2.976896   4.946003   0.972808
    12  C    3.815298   5.420156   4.672347   2.746689   2.853701
    13  H    4.465421   5.898001   4.876883   3.538998   2.779027
    14  H    4.447936   5.909744   4.933452   3.485830   2.899322
    15  H    4.025272   5.906365   5.541866   2.387127   3.931417
    16  Cl   1.764611   2.875137   4.889930   2.858365   5.918341
                   11         12         13         14         15
    11  H    0.000000
    12  C    3.139905   0.000000
    13  H    3.238947   1.096615   0.000000
    14  H    2.835872   1.098290   1.762548   0.000000
    15  H    4.210674   1.095102   1.778958   1.773770   0.000000
    16  Cl   6.331935   5.262079   5.957980   5.921838   5.187876
                   16
    16  Cl   0.000000
 Stoichiometry    C7H7ClO
 Framework group  C1[X(C7H7ClO)]
 Deg. of freedom    42
 Full point group                 C1      NOp   1
 Largest Abelian subgroup         C1      NOp   1
 Largest concise Abelian subgroup C1      NOp   1
                         Standard orientation:                         
 ---------------------------------------------------------------------
 Center     Atomic      Atomic             Coordinates (Angstroms)
 Number     Number       Type             X           Y           Z
 ---------------------------------------------------------------------
      1          6           0        0.768673   -1.395103   -0.008183
      2          6           0       -0.604546   -1.642817   -0.016920
      3          6           0       -1.512899   -0.584719   -0.010382
      4          6           0       -1.074357    0.749815   -0.007425
      5          6           0        0.304792    0.990857   -0.000176
      6          6           0        1.205856   -0.073217    0.001138
      7          1           0        1.480582   -2.212663   -0.012259
      8          1           0       -0.979721   -2.660620   -0.034497
      9          1           0        0.673729    2.010945    0.003059
     10          8           0       -2.873050   -0.854874   -0.076539
     11          1           0       -3.230028   -0.912314    0.826580
     12          6           0       -2.069930    1.882694   -0.010742
     13          1           0       -2.750490    1.806471   -0.867242
     14          1           0       -2.693654    1.871574    0.893186
     15          1           0       -1.560001    2.850737   -0.056726
     16         17           0        2.937556    0.265870    0.010373
 ---------------------------------------------------------------------
 Rotational constants (GHZ):           2.9886201           0.8568872           0.6700847
 Standard basis: 6-31G(d) (6D, 7F)
 There are   153 symmetry adapted cartesian basis functions of A   symmetry.
 There are   153 symmetry adapted basis functions of A   symmetry.
   153 basis functions,   304 primitive gaussians,   153 cartesian basis functions
    37 alpha electrons       37 beta electrons
       nuclear repulsion energy       481.5205657237 Hartrees.
 NAtoms=   16 NActive=   16 NUniq=   16 SFac= 1.00D+00 NAtFMM=   60 NAOKFM=F Big=F
 Integral buffers will be    131072 words long.
 Raffenetti 2 integral format.
 Two-electron integral symmetry is turned on.
 ------------------------------------------------------------------------------
 Polarizable Continuum Model (PCM)
 =================================
 Model                : PCM.
 Atomic radii         : SMD-Coulomb.
 Polarization charges : Total charges.
 Charge compensation  : None.
 Solution method      : On-the-fly selection.
 Cavity type          : VdW (van der Waals Surface) (Alpha=1.000).
 Cavity algorithm     : GePol (No added spheres)
                        Default sphere list used, NSphG=   16.
                        Lebedev-Laikov grids with approx.  5.0 points / Ang**2.
                        Smoothing algorithm: York/Karplus (Gamma=1.0000).
                        Polarization charges: spherical gaussians, with
                                              point-specific exponents (IZeta= 3).
                        Self-potential: point-specific (ISelfS= 7).
                        Self-field    : sphere-specific E.n sum rule (ISelfD= 2).
 1st derivatives      : Analytical E(r).r(x)/FMM algorithm (CHGder, D1EAlg=3).
                        Cavity 1st derivative terms included.
 Solvent              : Toluene, Eps=   2.374100 Eps(inf)=   2.238315
 ------------------------------------------------------------------------------
 Spheres list:
 ISph  on   Nord     Re0    Alpha      Xe            Ye            Ze
    1   C      1    1.8500  1.000      0.768673     -1.395103     -0.008183
    2   C      2    1.8500  1.000     -0.604546     -1.642817     -0.016920
    3   C      3    1.8500  1.000     -1.512899     -0.584719     -0.010382
    4   C      4    1.8500  1.000     -1.074357      0.749815     -0.007425
    5   C      5    1.8500  1.000      0.304792      0.990857     -0.000176
    6   C      6    1.8500  1.000      1.205856     -0.073217      0.001138
    7   H      7    1.2000  1.000      1.480582     -2.212663     -0.012259
    8   H      8    1.2000  1.000     -0.979721     -2.660620     -0.034497
    9   H      9    1.2000  1.000      0.673729      2.010945      0.003059
   10   O     10    2.2940  1.000     -2.873050     -0.854874     -0.076539
   11   H     11    1.2000  1.000     -3.230028     -0.912314      0.826580
   12   C     12    1.8500  1.000     -2.069930      1.882694     -0.010742
   13   H     13    1.2000  1.000     -2.750490      1.806471     -0.867242
   14   H     14    1.2000  1.000     -2.693654      1.871574      0.893186
   15   H     15    1.2000  1.000     -1.560001      2.850737     -0.056726
   16  Cl     16    2.3800  1.000      2.937556      0.265870      0.010373
 ------------------------------------------------------------------------------
 ------------------------------------------------------------------------------
 Atomic radii for non-electrostatic terms: SMD-CDS.
 ------------------------------------------------------------------------------
 Nuclear repulsion after PCM non-electrostatic terms =      481.5137901231 Hartrees.
 One-electron integrals computed using PRISM.
 NBasis=   153 RedAO= T EigKep=  4.05D-04  NBF=   153
 NBsUse=   153 1.00D-06 EigRej= -1.00D+00 NBFU=   153
 Initial guess from the checkpoint file:  "HClbz.chk"
 B after Tr=    -0.000000   -0.000000   -0.000000
         Rot=    1.000000    0.000177    0.000023    0.000405 Ang=   0.05 deg.
 ExpMin= 1.43D-01 ExpMax= 2.52D+04 ExpMxC= 3.78D+03 IAcc=3 IRadAn=         5 AccDes= 0.00D+00
 Harris functional with IExCor=  402 and IRadAn=       5 diagonalized for initial guess.
 HarFok:  IExCor=  402 AccDes= 0.00D+00 IRadAn=         5 IDoV= 1 UseB2=F ITyADJ=14
 ICtDFT=  3500011 ScaDFX=  1.000000  1.000000  1.000000  1.000000
 FoFCou: FMM=F IPFlag=           0 FMFlag=      100000 FMFlg1=           0
         NFxFlg=           0 DoJE=T BraDBF=F KetDBF=T FulRan=T
         wScrn=  0.000000 ICntrl=       500 IOpCl=  0 I1Cent=   200000004 NGrid=           0
         NMat0=    1 NMatS0=      1 NMatT0=    0 NMatD0=    1 NMtDS0=    0 NMtDT0=    0
 Petite list used in FoFCou.
 Requested convergence on RMS density matrix=1.00D-08 within 128 cycles.
 Requested convergence on MAX density matrix=1.00D-06.
 Requested convergence on             energy=1.00D-06.
 No special actions if energy rises.
 Inv3:  Mode=1 IEnd=     6696108.
 Iteration    1 A*A^-1 deviation from unit magnitude is 3.77D-15 for   1482.
 Iteration    1 A*A^-1 deviation from orthogonality  is 1.42D-15 for   1481   1338.
 Iteration    1 A^-1*A deviation from unit magnitude is 3.77D-15 for   1482.
 Iteration    1 A^-1*A deviation from orthogonality  is 1.29D-15 for   1151    231.
 Error on total polarization charges =  0.01352
 SCF Done:  E(RB3LYP) =  -806.383776816     A.U. after   10 cycles
            NFock= 10  Conv=0.41D-08     -V/T= 2.0059
 SMD-CDS (non-electrostatic) energy       (kcal/mol) =      -4.25
 (included in total energy above)
 D1PCM: PCM CHGder 1st derivatives, ID1Alg=3 FixD1E=F DoIter=F DoCFld=F I1PDM=0.
 Calling FoFJK, ICntrl=      2127 FMM=F ISym2X=0 I1Cent= 0 IOpClX= 0 NMat=1 NMatS=1 NMatT=0.
 ***** Axes restored to original set *****
 -------------------------------------------------------------------
 Center     Atomic                   Forces (Hartrees/Bohr)
 Number     Number              X              Y              Z
 -------------------------------------------------------------------
      1        6           0.000221595    0.000328114    0.000174660
      2        6          -0.001120223    0.000808610    0.000056238
      3        6           0.001765885   -0.000511067   -0.000008452
      4        6          -0.000761224    0.000624380   -0.000209870
      5        6           0.000322522   -0.000636734    0.000035652
      6        6           0.001308823    0.000047707   -0.000078457
      7        1          -0.000213929   -0.000461769    0.000007907
      8        1           0.000540832   -0.000489936   -0.000046636
      9        1          -0.000247368    0.000520041    0.000023599
     10        8          -0.000633348   -0.000466286   -0.000893626
     11        1          -0.000233752    0.000360827    0.000949786
     12        6          -0.000471519   -0.000303103    0.000193702
     13        1          -0.000245782    0.000221166   -0.000614505
     14        1          -0.000185983    0.000208712    0.000472758
     15        1           0.000757928   -0.000318207   -0.000060831
     16       17          -0.000804457    0.000067545   -0.000001926
 -------------------------------------------------------------------
 Cartesian Forces:  Max     0.001765885 RMS     0.000555761

 GradGradGradGradGradGradGradGradGradGradGradGradGradGradGradGradGradGrad
 Berny optimization.
 Using GEDIIS/GDIIS optimizer.
 FormGI is forming the generalized inverse of G from B-inverse, IUseBI=4.
 Internal  Forces:  Max     0.000964777 RMS     0.000304215
 Search for a local minimum.
 Step number   3 out of a maximum of   83
 All quantities printed in internal units (Hartrees-Bohrs-Radians)
 Mixed Optimization -- En-DIIS/RFO-DIIS
 Update second derivatives using D2CorX and points    1    2    3
 DE= -2.92D-04 DEPred=-2.63D-04 R= 1.11D+00
 TightC=F SS=  1.41D+00  RLast= 6.55D-02 DXNew= 8.4853D-01 1.9652D-01
 Trust test= 1.11D+00 RLast= 6.55D-02 DXMaxT set to 5.05D-01
 ITU=  1  1  0
 Use linear search instead of GDIIS.
     Eigenvalues ---    0.00235   0.01241   0.01365   0.02053   0.02152
     Eigenvalues ---    0.02154   0.02155   0.02155   0.02156   0.02156
     Eigenvalues ---    0.02176   0.06878   0.06898   0.13529   0.16000
     Eigenvalues ---    0.16000   0.16000   0.16000   0.16027   0.17029
     Eigenvalues ---    0.21728   0.23427   0.24814   0.24962   0.24992
     Eigenvalues ---    0.25090   0.26996   0.29536   0.33712   0.33719
     Eigenvalues ---    0.34236   0.37162   0.37230   0.38991   0.39311
     Eigenvalues ---    0.42348   0.42969   0.46358   0.46463   0.46490
     Eigenvalues ---    0.47091   0.56405
 RFO step:  Lambda=-4.17250353D-05 EMin= 2.35492312D-03
 Quartic linear search produced a step of  0.12410.
 Iteration  1 RMS(Cart)=  0.00765196 RMS(Int)=  0.00009047
 Iteration  2 RMS(Cart)=  0.00008353 RMS(Int)=  0.00000388
 Iteration  3 RMS(Cart)=  0.00000001 RMS(Int)=  0.00000388
 Variable       Old X    -DE/DX   Delta X   Delta X   Delta X     New X
                                 (Linear)    (Quad)   (Total)
    R1        2.63694  -0.00022   0.00043  -0.00076  -0.00033   2.63661
    R2        2.63113  -0.00010  -0.00017  -0.00026  -0.00043   2.63070
    R3        2.04862   0.00051  -0.00027   0.00146   0.00119   2.04981
    R4        2.63528   0.00001   0.00018  -0.00003   0.00015   2.63544
    R5        2.05015   0.00070  -0.00014   0.00204   0.00190   2.05205
    R6        2.65458   0.00063   0.00103   0.00124   0.00227   2.65685
    R7        2.62350  -0.00086  -0.00149  -0.00250  -0.00399   2.61951
    R8        2.64576  -0.00036   0.00051  -0.00101  -0.00050   2.64526
    R9        2.85004  -0.00024  -0.00273  -0.00021  -0.00294   2.84710
   R10        2.63491  -0.00024  -0.00040  -0.00042  -0.00082   2.63410
   R11        2.04990   0.00057  -0.00011   0.00161   0.00150   2.05139
   R12        3.33463   0.00080   0.00089   0.00266   0.00355   3.33818
   R13        1.83834  -0.00096   0.00055  -0.00193  -0.00138   1.83696
   R14        2.07230  -0.00062   0.00067  -0.00160  -0.00093   2.07138
   R15        2.07547  -0.00047   0.00080  -0.00120  -0.00040   2.07507
   R16        2.06944  -0.00072   0.00054  -0.00188  -0.00134   2.06810
    A1        2.06869  -0.00016  -0.00078  -0.00082  -0.00161   2.06709
    A2        2.10871   0.00003   0.00063  -0.00002   0.00061   2.10932
    A3        2.10577   0.00013   0.00016   0.00085   0.00100   2.10677
    A4        2.10167   0.00024   0.00074   0.00099   0.00172   2.10339
    A5        2.10245   0.00009   0.00049   0.00068   0.00116   2.10362
    A6        2.07905  -0.00033  -0.00122  -0.00167  -0.00289   2.07615
    A7        2.11471  -0.00034  -0.00038  -0.00096  -0.00134   2.11337
    A8        2.08322   0.00013   0.00013   0.00021   0.00033   2.08355
    A9        2.08383   0.00021   0.00026   0.00051   0.00077   2.08460
   A10        2.06132   0.00005  -0.00045   0.00021  -0.00024   2.06109
   A11        2.10311  -0.00011  -0.00009  -0.00038  -0.00046   2.10265
   A12        2.11875   0.00005   0.00053   0.00017   0.00070   2.11945
   A13        2.10040  -0.00001   0.00024  -0.00018   0.00005   2.10046
   A14        2.09087  -0.00005   0.00010  -0.00042  -0.00032   2.09055
   A15        2.09191   0.00006  -0.00034   0.00061   0.00027   2.09218
   A16        2.11953   0.00022   0.00064   0.00078   0.00141   2.12094
   A17        2.08358  -0.00000  -0.00009   0.00000  -0.00009   2.08349
   A18        2.08007  -0.00022  -0.00054  -0.00078  -0.00132   2.07874
   A19        1.90368   0.00022   0.00351  -0.00041   0.00310   1.90678
   A20        1.93818   0.00029   0.00135   0.00165   0.00299   1.94117
   A21        1.94493   0.00022   0.00140   0.00098   0.00237   1.94730
   A22        1.93555   0.00045   0.00127   0.00292   0.00417   1.93972
   A23        1.86468  -0.00032  -0.00199  -0.00212  -0.00412   1.86056
   A24        1.89402  -0.00033  -0.00089  -0.00162  -0.00252   1.89150
   A25        1.88384  -0.00036  -0.00133  -0.00216  -0.00350   1.88034
    D1       -0.00490   0.00005  -0.00040   0.00250   0.00210  -0.00280
    D2        3.13069   0.00001   0.00001   0.00050   0.00051   3.13120
    D3        3.14059   0.00002  -0.00010   0.00101   0.00091   3.14150
    D4       -0.00700  -0.00001   0.00030  -0.00099  -0.00069  -0.00769
    D5       -0.00171  -0.00003   0.00053  -0.00200  -0.00147  -0.00318
    D6       -3.14034  -0.00002   0.00029  -0.00118  -0.00088  -3.14122
    D7        3.13599  -0.00001   0.00024  -0.00052  -0.00028   3.13571
    D8       -0.00264   0.00001   0.00000   0.00031   0.00031  -0.00233
    D9        0.01039  -0.00005   0.00017  -0.00217  -0.00200   0.00839
   D10        3.09426  -0.00011   0.00044  -0.00697  -0.00652   3.08774
   D11       -3.12528  -0.00001  -0.00024  -0.00021  -0.00045  -3.12573
   D12       -0.04141  -0.00008   0.00003  -0.00500  -0.00497  -0.04638
   D13       -0.00895   0.00003  -0.00006   0.00124   0.00118  -0.00777
   D14        3.13359   0.00002   0.00038   0.00010   0.00048   3.13408
   D15       -3.09280   0.00010  -0.00033   0.00605   0.00572  -3.08708
   D16        0.04974   0.00008   0.00012   0.00491   0.00502   0.05477
[...]
     8          2.45097998         -3.43009235          7.76179649
     1          1.88372050         -2.68343378          9.33771917
     6         -0.82340900          0.88231420          8.73383828
     1         -1.81661212         -0.57942066          9.82663205
     1          0.85170617          1.44827375          9.82501606
     1         -2.07273853          2.52606138          8.64768157
    17         -1.63377736          1.94746174         -1.12202842

 Electric dipole moment (dipole orientation):
 (Debye = 10**-18 statcoulomb cm , SI units = C m)
                  (au)            (Debye)         (10**-30 SI)
   Tot        0.131344D+01      0.333844D+01      0.111358D+02
   x          0.000000D+00      0.000000D+00      0.000000D+00
   y          0.000000D+00      0.000000D+00      0.000000D+00
   z          0.131344D+01      0.333844D+01      0.111358D+02

 Dipole polarizability, Alpha (dipole orientation).
 (esu units = cm**3 , SI units = C**2 m**2 J**-1)
 Alpha(0;0):
               (au)            (10**-24 esu)      (10**-40 SI)
   iso        0.956877D+02      0.141795D+02      0.157768D+02
   aniso      0.865791D+02      0.128297D+02      0.142750D+02
   xx         0.667261D+02      0.988779D+01      0.110016D+02
   yx        -0.338873D+02     -0.502157D+01     -0.558726D+01
   yy         0.856256D+02      0.126884D+02      0.141177D+02
   zx         0.660269D+01      0.978417D+00      0.108864D+01
   zy        -0.867575D+01     -0.128561D+01     -0.143044D+01
   zz         0.134711D+03      0.199622D+02      0.222109D+02

 ----------------------------------------------------------------------
 Unable to Open any file for archive entry.
 1\1\GINC-RONG-OPTIPLEX-7040\Freq\RB3LYP\6-31G(d)\C7H7Cl1O1\RONG\23-Sep
 -2021\0\\#N Geom=AllCheck Guess=TCheck SCRF=Check GenChk RB3LYP/6-31G(
 d) Freq\\HClbz\\0,1\C,1.163453748,-0.5227744888,0.0004115225\C,2.55363
 41802,-0.5448497568,-0.0743625499\C,3.2792707006,0.6489969169,-0.10741
 79549\C,2.6224624635,1.8939321624,-0.0658002655\C,1.2256238412,1.90169
 03689,0.0092178637\C,0.5105990474,0.7069601486,0.0415591399\H,0.599236
 5937,-1.4490188843,0.0260554994\H,3.0923594137,-1.4867004208,-0.107948
 8277\H,0.6979748334,2.8498675396,0.0423413498\O,4.6389850185,0.5425596
 523,-0.1811134199\H,5.0345686485,1.4285190499,-0.1976526754\C,3.411569
 0717,3.1810750006,-0.1018365952\H,4.1026044937,3.265850828,0.749195535
 2\H,4.00658166,3.2749781186,-1.0216314331\H,2.7462184584,4.0479216389,
 -0.0612185305\Cl,-1.2537475525,0.7559885261,0.1365210115\\Version=ES64
 L-G16RevC.01\State=1-A\HF=-806.3897164\RMSD=3.751e-09\RMSF=1.965e-05\Z
 eroPoint=0.123051\Thermal=0.1314327\ETot=-806.2582837\HTot=-806.257339
 5\GTot=-806.2999161\Dipole=1.0723519,0.7565179,-0.0536146\DipoleDeriv=
 -0.1280616,-0.1069578,0.0006382,0.0229545,0.0833461,-0.0002926,0.00130
 37,0.0067431,-0.1061465,-0.1951817,0.0658685,0.0022709,-0.2184192,0.05
 99207,0.0128234,0.0008427,-0.0024717,-0.1593556,1.5778146,-0.0077238,-
 0.0770709,-0.1274722,-0.0401253,0.0059028,-0.0777376,-0.0005137,0.1496
 616,-0.1791959,0.0210056,0.0062592,0.3500949,0.1861007,-0.0175663,0.00
 79089,-0.0000494,-0.0647471,-0.1138605,0.0399527,-0.0000203,-0.0301866
 ,0.0505223,0.0024757,-0.0003823,-0.0012739,-0.1180116,1.2206925,-0.001
 8262,-0.0666376,-0.0693755,-0.1288907,0.0031855,-0.0670383,-0.0004379,
 -0.0172623,0.0509475,-0.0761358,0.0042575,-0.0634506,0.0031279,0.00273
 99,0.0043046,0.0033962,0.1370985,0.0177749,0.0778853,0.0068688,0.06111
 35,-0.0218488,-0.0040788,0.0067884,-0.0049661,0.1381152,0.0646852,0.05
 8869,0.00379,0.0642582,-0.024757,-0.0042334,0.0038036,-0.0039575,0.129
 5608,-1.7510859,0.016669,0.0716277,0.0268395,-0.2528324,-0.0005413,0.0
 717934,-0.000019,-0.4236869,0.4400483,-0.0170504,-0.0052336,0.0029314,
 0.2218756,-0.0008111,-0.0052137,0.0002764,0.3443482,0.0358389,-0.01981
 4,0.00447,0.0166521,0.0642139,-0.001195,0.0047968,0.0009324,0.1196901,
 -0.0488268,-0.0821961,-0.102163,-0.0421083,0.0006042,0.0257927,-0.1026
 034,-0.0119027,-0.0428326,-0.0268066,-0.0815366,0.0995279,-0.0457566,0
 .0006022,-0.0204461,0.1003271,0.0213126,-0.0648395,-0.0005916,0.125588
 8,0.0059222,0.0282858,-0.0495502,-0.0023013,0.0053899,-0.007554,0.0962
 11,-0.9641914,-0.0125981,0.0454929,0.0236393,-0.152309,-0.001454,0.045
 7164,0.0004852,-0.1178034\Polar=136.9569817,7.3360154,108.8359846,-5.1
 162042,-0.0535181,41.2701337\Quadrupole=-1.7242671,4.5134483,-2.789181
 2,4.1855746,-0.0351806,-0.1882149\PG=C01 [X(C7H7Cl1O1)]\NImag=0\\0.699
 65160,0.04179683,0.73204431,-0.03074599,0.00079375,0.12468174,-0.35536
 571,-0.02995075,0.01616128,0.72553716,0.03547181,-0.12730424,-0.002283
 03,-0.03206553,0.71860068,0.01649148,0.00123146,-0.05251278,-0.0327371
 2,0.00469444,0.12078835,-0.03008147,-0.02730037,0.00145430,-0.16342043
 ,-0.11574632,0.00484307,0.70147578,-0.07745018,0.04313087,0.00437850,-
 0.04345752,-0.28696036,0.00122279,0.02768991,0.70855140,0.00120133,0.0
 0168657,-0.00053085,0.00520742,0.00510208,-0.06280563,-0.02944790,0.00
 131934,0.15285990,-0.04397580,0.03261263,0.00248576,0.05894188,0.01702
 736,-0.00281399,-0.15046794,0.02449802,0.00467389,0.68643928,0.0279465
 4,-0.01965786,-0.00159560,-0.02432984,-0.04902395,0.00103394,0.0953851
 0,-0.26454955,-0.00613495,-0.00325956,0.63021360,0.00246113,-0.0018470
 1,-0.00086396,-0.00302092,-0.00118024,0.00512493,0.00502545,-0.0023289
 0,-0.06620792,-0.02861415,0.00256652,0.15589745,0.05715279,-0.02707186
 ,-0.00287173,-0.04594568,-0.02344208,0.00227467,-0.02582442,0.07895833
 ,0.00178185,-0.33190704,-0.03002062,0.01476111,0.68311175,0.02290214,-
 0.05637586,-0.00154492,-0.02979704,-0.01891326,0.00151215,0.03123836,0
 .03823211,-0.00148578,0.03828692,-0.12361906,-0.00240249,-0.02752558,0
 .73708797,-0.00262100,0.00114086,0.00633607,0.00224027,0.00117046,-0.0
 0152984,0.00154416,-0.00404640,-0.00012384,0.01510113,0.00126123,-0.05
 497285,-0.03012748,0.00457309,0.12612917,-0.14678246,0.11729651,0.0054
 3370,-0.02817494,0.02525812,0.00192522,-0.00030923,-0.00143057,-0.0001
 2657,-0.03137672,-0.02225565,0.00175736,-0.15723273,-0.12520402,0.0047
 7789,0.49698705,0.05134956,-0.29723496,-0.00394947,0.08120163,0.030835
 09,-0.00423303,-0.00215111,-0.07900718,-0.00026838,-0.07766318,0.03676
 013,0.00433401,-0.05920521,-0.28696802,0.00201091,0.00393035,0.6654615
 6,0.00510493,-0.00749262,-0.05672985,0.00220681,-0.00123031,0.00524417
 ,-0.00012804,-0.00030590,-0.00251650,0.00147795,0.00136180,0.00335023,
 0.00510996,0.00555614,-0.05667787,-0.02086934,0.00258524,0.10879203,-0
 .13493864,-0.12866928,0.00475929,-0.01150085,-0.02763606,0.00061156,-0
 .00398556,0.00223110,0.00063454,-0.00080233,0.00053460,-0.00000408,-0.
 00131247,0.00286620,0.00036261,0.00957643,0.01445911,-0.00032590,0.140
 56098,-0.12635657,-0.26974339,0.00560430,0.00220323,0.00542766,-0.0001
 0349,0.00138489,0.00127125,-0.00010638,0.00069892,0.00031404,-0.000031
 20,0.00414870,-0.00304802,-0.00026366,-0.01680287,-0.01891778,0.000796
 34,0.13638819,0.28335150,0.00476818,0.00572658,-0.03448631,0.00076287,
 0.00149961,0.00242726,0.00063091,-0.00015250,0.00759296,-0.00000412,-0
 .00002206,-0.00092766,0.00036903,-0.00019424,0.00515676,-0.00048141,-0
 .00088159,0.00217861,-0.00554650,-0.00602547,0.02477278,-0.01092375,0.
 02839873,0.00081349,-0.12716092,0.12208599,0.00565544,0.01123751,-0.01
 495236,-0.00044507,-0.00187059,-0.00264318,0.00037655,-0.00082527,-0.0
 0065953,0.00001985,-0.00361083,-0.00145852,0.00054992,0.00137046,-0.00
 022184,-0.00030150,0.13097701,-0.00172839,0.00453637,0.00010717,0.1205
 4464,-0.27633740,-0.00767603,0.01684511,-0.01944094,-0.00102334,-0.003
 97066,-0.00283041,0.00017328,-0.00108842,0.00013398,0.00006098,-0.0006
 8767,0.00168972,0.00001204,0.00026856,0.00073563,0.00001011,-0.1317355
 6,0.29026463,0.00066333,-0.00151076,0.00155601,0.00564745,-0.00775730,
 -0.03345122,-0.00028717,0.00068239,0.00435642,0.00036922,0.00010149,0.
 00536044,0.00001879,0.00003842,-0.00039321,0.00055365,0.00005219,0.006
 73161,-0.00029889,0.00003674,-0.00420728,-0.00639375,0.00839222,0.0244
 4006,-0.00160441,-0.00301910,0.00033557,-0.00086107,-0.00046385,0.0000
 0537,-0.00457840,-0.00208779,0.00059988,-0.01168814,0.02695773,0.00095
 102,-0.12414461,0.12146401,0.00542769,0.00957217,-0.01572893,-0.000471
 03,0.00067879,-0.00080237,-0.00000951,0.00011281,0.00010379,-0.0000318
 0,0.13079189,-0.00436525,-0.00283322,0.00019495,-0.00060991,0.00057368
 ,0.00003933,-0.00097572,0.00113383,0.00002357,-0.00117676,0.00208401,0
 .00005607,0.11961816,-0.27650010,-0.00764695,0.01580194,-0.01940194,-0
 .00095724,0.00074062,-0.00090689,-0.00004713,0.00010428,-0.00003238,-0
 .00000329,-0.12821522,0.29271369,0.00032906,0.00012258,0.00491611,0.00
 000359,0.00003108,-0.00072061,0.00060567,0.00008428,0.00676108,0.00080
 900,-0.00145428,0.00343139,0.00541902,-0.00774644,-0.03478805,-0.00031
 138,0.00073563,0.00229459,-0.00000185,0.00003559,0.00057396,-0.0000317
 6,-0.00000330,-0.00048699,-0.00636204,0.00824080,0.02474291,0.00457357
 ,-0.00061993,-0.00000265,-0.04529981,-0.01219312,0.00270026,-0.3139242
 6,0.04543001,0.01496430,-0.04267756,0.01040300,0.00277396,0.00298267,0
 .00142337,0.00022725,-0.00073192,0.00090873,-0.00000705,-0.00091640,-0
 .00015734,0.00005827,0.00149043,0.00095770,-0.00025389,-0.00132781,0.0
 0000730,0.00006606,0.50250221,0.00429034,-0.00921653,-0.00029918,-0.04
 972566,0.00638321,0.00267583,-0.00712224,-0.11173990,0.00001067,0.0412
 6118,0.00032643,-0.00225642,-0.00453348,-0.00884046,0.00016230,0.00003
 606,0.00569956,0.00003089,-0.00170539,0.00015432,0.00009139,0.00079819
 ,0.00179052,-0.00001724,0.00166410,0.00020004,-0.00008765,0.13905759,0
 .53828811,0.00002066,-0.00003653,0.00460078,0.00250969,0.00065910,0.00
 588243,0.01468313,-0.00281611,-0.04094073,0.00292538,-0.00059711,0.007
 68675,0.00019682,-0.00015603,0.00705275,-0.00001005,-0.00001695,-0.000
 92886,0.00005041,0.00000831,0.00018256,-0.00025499,-0.00002658,-0.0033
 1165,0.00007480,0.00000121,-0.00009734,-0.02494193,-0.00475131,0.02622
 276,0.00047376,-0.00217880,0.00006642,-0.00700563,0.00325026,0.0004906
 0,-0.02712067,-0.04673506,0.00101775,0.00150360,-0.00140162,-0.0000802
 4,-0.00066950,-0.00116082,0.00000559,-0.00003521,0.00068204,0.00000323
 ,-0.00044187,0.00012552,0.00001686,0.00010598,0.00002363,-0.00004358,0
 .00033089,0.00000448,-0.00001572,-0.10775526,-0.12723371,0.00500286,0.
 13884318,-0.00046321,0.00001016,0.00001538,0.00201565,0.00192312,-0.00
 010980,0.00044113,0.00247319,0.00000953,0.00546735,0.00047441,-0.00029
 223,-0.00024911,-0.00060733,0.00001279,0.00017447,-0.00026474,-0.00001
 036,0.00003090,0.00008219,-0.00000039,0.00017588,0.00033915,-0.0000043
 6,0.00025389,0.00008586,-0.00001333,-0.18109552,-0.42502260,0.00748202
 ,0.17223384,0.42208563,0.00007545,0.00010837,0.00189398,0.00048695,-0.
 00017496,0.00181093,0.00127198,0.00254684,-0.00365148,-0.00004579,0.00
 007676,0.00013429,0.00000984,0.00006069,-0.00045866,0.00000031,-0.0000
 3714,-0.00003762,0.00001662,-0.00000563,-0.00014169,-0.00004266,0.0000
 0368,-0.00070061,-0.00001446,0.00000003,0.00003626,0.00471312,0.004583
 81,-0.00229417,-0.00635043,-0.00702958,0.00396018,-0.00175290,-0.00068
 570,0.00004329,-0.00157215,0.00528152,0.00040993,0.01062346,0.00665000
 ,-0.00037017,-0.12103238,-0.04921044,0.00247487,-0.01906588,-0.0298054
 9,0.00104335,-0.00214300,0.00177093,0.00055141,0.00012679,-0.00003225,
 -0.00004208,0.00081807,0.00113956,-0.00004579,0.00121792,-0.00130150,-
 0.00032292,0.00174823,0.00328790,-0.00032619,0.00051098,0.00053943,0.0
 0013229,0.54976681,0.00089178,-0.00040180,-0.00004551,0.00331532,-0.00
 201191,-0.00021581,-0.00913897,-0.03091798,0.00032240,-0.05667356,-0.1
 7878070,0.00250712,-0.00752323,-0.00136749,0.00038267,0.00110285,0.002
 02873,-0.00008986,-0.00007490,0.00000344,0.00000747,-0.00073814,-0.000
 52545,0.00003764,0.00204076,0.00090203,-0.00008107,-0.00767890,-0.0011
 8848,0.00042726,0.00067731,0.00196831,-0.00003992,-0.04739392,0.526773
 82,0.00005529,0.00003954,-0.00088271,0.00039796,-0.00032609,0.00552462
 ,-0.00044232,-0.00052594,0.00317406,0.00244083,0.00210685,-0.07055074,
 0.00114850,0.00157555,0.00302501,0.00054441,-0.00012192,0.00790177,-0.
 00004205,0.00000485,-0.00064733,-0.00005556,-0.00006353,-0.00013794,-0
 .00030456,0.00009798,-0.00463680,-0.00038507,-0.00016659,-0.00458131,0
 .00012700,-0.00002643,0.00285756,-0.00082214,0.00251307,0.53978451,-0.
 00016912,0.00003878,-0.00002967,-0.00018047,-0.00019593,0.00009516,-0.
 00169507,0.00197935,0.00070170,-0.01281259,-0.00412402,-0.01071522,0.0
 0021237,-0.00226185,-0.00063622,-0.00006351,-0.00049537,0.00104107,-0.
 00000392,-0.00003849,-0.00004737,0.00000376,-0.00007544,-0.00003581,0.
 00009457,-0.00008412,-0.00065329,0.00217198,-0.00012987,0.00013760,0.0
 0014179,0.00024114,-0.00038982,-0.14589446,-0.00765268,-0.12424790,0.1
 5815378,-0.00090667,0.00003855,-0.00013634,0.00041386,0.00079576,0.001
 02328,-0.00313875,-0.00028275,0.00015071,-0.01914874,-0.00226505,-0.02
 206397,0.00049887,-0.00227471,-0.00065221,-0.00000438,-0.00074682,0.00
 103631,0.00000184,0.00000427,-0.00003922,0.00006844,-0.00003516,-0.000
 08389,-0.00016814,0.00013346,-0.00034428,0.00204215,0.00121802,0.00024
 737,0.00084403,-0.00168202,-0.00147449,-0.01037356,-0.05026194,-0.0139
 9735,0.01338079,0.05319720,-0.00012624,0.00009818,0.00000550,0.0002687
 5,-0.00005891,-0.00028701,-0.00213045,0.00034714,0.00091356,0.00258759
 ,-0.00157245,0.00495516,0.00085051,0.00030049,-0.00033980,0.00009144,-
 0.00021799,-0.00032136,0.00001435,-0.00000139,0.00004765,-0.00003059,-
 0.00004918,0.00000662,0.00007095,0.00000788,0.00014526,0.00111653,0.00
 054212,0.00010187,0.00052670,-0.00144296,-0.00105486,-0.12443671,-0.01
 185951,-0.20382893,0.13709289,0.01382958,0.21957149,-0.00015076,0.0000
 2711,0.00004702,-0.00022190,-0.00018696,-0.00010587,-0.00150907,0.0019
 3548,-0.00042013,-0.01174346,-0.00406158,0.01250295,0.00018329,-0.0022
 8496,0.00055525,-0.00018662,-0.00045891,-0.00106188,0.00000009,-0.0000
 3858,0.00005229,0.00001091,-0.00006998,0.00003468,0.00015627,-0.000090
 86,0.00065198,0.00200884,-0.00018149,-0.00034027,0.00011267,0.00039268
 ,0.00026503,-0.11986584,-0.00747195,0.11509779,0.01287747,0.00162590,-
 0.01784925,0.12943194,-0.00088997,0.00003823,0.00023327,0.00030615,0.0
 0080632,-0.00105144,-0.00316206,-0.00028085,0.00017646,-0.01664474,-0.
 00253110,0.02393247,0.00057723,-0.00227331,0.00057449,-0.00011352,-0.0
 0074206,-0.00103486,0.00000606,0.00000387,0.00003825,0.00007667,-0.000
 03657,0.00007583,-0.00012943,0.00012992,0.00036070,0.00202399,0.001216
 45,-0.00045442,0.00100072,-0.00170736,0.00136808,-0.00994732,-0.050547
 01,0.01682774,0.00136650,-0.00046505,-0.00083021,0.01307712,0.05352119
 ,0.00013347,-0.00010194,-0.00001168,-0.00027192,0.00009119,-0.00025677
 ,0.00235626,-0.00057041,0.00072739,-0.00094315,0.00194376,0.00414384,-
 0.00090116,-0.00007468,-0.00030508,-0.00010604,0.00026521,-0.00020535,
 -0.00000914,0.00000516,0.00004391,0.00003092,0.00005658,0.00000082,-0.
 00007365,0.00000195,0.00008590,-0.00129804,-0.00051095,0.00024862,-0.0
 0064019,0.00139713,-0.00099976,0.11525554,0.01440830,-0.22963845,0.014
 09202,0.00089093,-0.02178340,-0.12720892,-0.01713943,0.24805046,0.0000
 4873,0.00000075,-0.00000021,0.00082268,-0.00060117,-0.00003209,-0.0035
 3990,-0.00288231,0.00023137,0.01189142,-0.01644404,-0.00079137,0.00088
 145,-0.00179834,-0.00005985,0.00008416,-0.00010359,-0.00001221,-0.0000
 1127,0.00002025,0.00000191,-0.00015858,-0.00025182,-0.00000169,-0.0000
 7850,0.00013087,0.00002039,0.00025230,0.00030140,0.00002153,0.00056252
 ,-0.00052358,-0.00010159,-0.15266452,0.13530864,0.00641813,-0.01243263
 ,0.01520721,0.00187122,-0.01068794,0.01280550,-0.00037593,0.16486854,-
 0.00024973,0.00033726,0.00001488,0.00146681,-0.00085027,-0.00008393,-0
 .00410321,-0.00321442,0.00019842,0.01723854,-0.02321865,-0.00104831,0.
 00261268,0.00172392,-0.00013090,-0.00003487,-0.00025357,0.00000174,-0.
 00006285,0.00004454,0.00000338,-0.00028943,-0.00036122,0.00001461,-0.0
 0114868,0.00045156,0.00006185,-0.00063534,0.00052765,0.00003330,-0.000
 21359,-0.00013537,0.00001755,0.13074468,-0.21597910,-0.00797261,-0.001
 84726,0.00271765,0.00088902,-0.00211077,0.00295728,-0.00065457,-0.1412
 3627,0.23519517,-0.00000202,0.00000166,0.00004786,-0.00002170,0.000027
 57,0.00027155,0.00022351,0.00013348,0.00101616,-0.00061591,0.00077957,
 -0.00108618,-0.00003683,0.00010496,-0.00004389,-0.00001158,0.00000453,
 -0.00012572,0.00000139,-0.00000093,0.00002050,-0.00000181,0.00001259,-
 0.00016639,0.00001312,-0.00000636,0.00027593,0.00001772,-0.00001461,0.
 00062788,-0.00009874,0.00003195,-0.00126840,0.00639369,-0.00821977,-0.
 04775037,-0.01647808,0.02149374,0.00186263,0.01780793,-0.02299334,-0.0
 0011697,-0.00717874,0.00864801,0.04648306,-0.03615542,-0.00067556,0.00
 205013,0.00140784,0.00415596,0.00018631,0.00311967,-0.00037639,-0.0002
 0419,0.00157837,-0.00347641,0.00014156,-0.03759672,0.00231663,0.002139
 50,-0.14557266,0.00296248,0.00683015,0.00159976,-0.00051939,-0.0002278
 3,-0.00157699,-0.00027504,0.00010526,0.00132763,0.00041171,-0.00020579
 ,-0.00509719,-0.00006492,0.00025054,0.00044277,0.00036505,-0.00002684,
 -0.00082112,0.00100961,0.00006969,-0.00040395,-0.00034284,0.00008230,-
 0.00041590,-0.00035291,-0.00004005,0.00016154,-0.00013072,-0.00001196,
 0.21800235,0.02776097,0.00263212,-0.00148815,-0.00153104,-0.00394412,0
 .00004032,-0.00014574,0.00160130,0.00001906,0.00144627,-0.00369628,-0.
 00011872,-0.02575437,0.00360964,0.00139033,0.00293326,-0.03893771,-0.0
 0025935,0.00062130,0.00122338,-0.00001418,0.00099041,0.00010953,-0.000
 05469,-0.00072075,0.00126644,0.00005782,0.00012632,0.00020367,-0.00000
 352,0.00008178,-0.00002258,-0.00000410,-0.00066384,0.00030551,0.000034
 89,-0.00010153,-0.00009141,0.00001820,-0.00010225,-0.00008994,-0.00000
 822,0.00006648,0.00005756,-0.00000302,-0.00500727,0.03577290,0.0021909
 4,0.00003931,0.00198010,0.00015862,-0.00026468,0.00448962,-0.00020257,
 0.00003141,-0.00062457,0.00016637,0.00014452,0.00452486,0.00199708,-0.
 00011691,0.00193334,0.00683238,-0.00026127,-0.01894988,-0.00022235,0.0
 0004686,-0.00258670,0.00011150,0.00001331,0.00040334,-0.00021135,-0.00
 000279,-0.00253362,0.00025117,0.00000692,-0.00045234,-0.00002811,-0.00
 001936,-0.00008595,0.00006163,-0.00005448,0.00038706,0.00007293,0.0001
 1983,0.00000562,-0.00002859,-0.00008357,0.00001654,-0.00001086,0.00000
 757,-0.00004766,-0.01113880,0.00039333,0.01154025\\0.00005063,-0.00002
 291,0.00000525,-0.00005325,-0.00001572,0.00000229,-0.00000282,0.000001
 32,-0.00000701,-0.00001824,0.00002670,0.00000975,-0.00003163,-0.000035
 19,-0.00000100,0.00000085,0.00004573,-0.00000865,-0.00000321,-0.000006
 00,-0.00000206,0.00001618,-0.00000341,0.00000205,-0.00000342,0.0000006
 6,0.00000112,0.00005993,0.00002901,-0.00000631,-0.00000532,-0.00000881
 ,0.00000191,-0.00000856,0.00001724,-0.00002013,0.00000222,0.00000792,0
 .00000708,-0.00001213,-0.00000380,0.00001077,0.00000142,-0.00001374,0.
 00000473,0.00000735,-0.00001898,0.00000022\\\@
 The archive entry for this job was punched.


 THE ENLIGHTENED ONE, BECAUSE HE SAW MANKIND DROWNING  
 IN THE GREAT SEA OF BIRTH, DEATH, AND SORROW, LONGED TO SAVE 
 THEM, FOR THIS HE WAS MOVED TO PITY.                         
 BECAUSE HE SAW MEN OF THE WORLD STRAYING IN FALSE PATHS, AND 
 NONE TO GUIDE THEM, FOR THIS HE WAS MOVED TO PITY.           
                     ..................                       
 BECAUSE HE SAW THE MEN OF THE WORLD PLOUGHING THEIR FIELDS,  
 SOWING THE SEED, TRAFFICKING, HUCKSTERING, BUYING, SELLING,  
 AND AT THE END WINNOWING NOTHING BUT BITTERNESS,             
 FOR THIS HE WAS MOVED TO PITY......                   
                   BUDAH'S PITY - UPSAKA SILA SUTRA           
 Job cpu time:       0 days  0 hours 16 minutes 42.4 seconds.
 Elapsed time:       0 days  0 hours  2 minutes  5.4 seconds.
 File lengths (MBytes):  RWF=     93 Int=      0 D2E=      0 Chk=      8 Scr=      1
 Normal termination of Gaussian 16 at Thu Sep 23 12:50:50 2021.
