 Entering Gaussian System, Link 0=/home/rong/g16/g16
 Input=/home/rong/gdata/062722/A9-recal.gjf
 Output=/home/rong/gdata/062722/A9-recal.log
 Initial command:
 /home/rong/g16/l1.exe "/home/rong//tmp/Gau-612855.inp" -scrdir="/home/rong//tmp/"
 Entering Link 1 = /home/rong/g16/l1.exe PID=    612857.
  
 Copyright (c) 1988-2019, Gaussian, Inc.  All Rights Reserved.
  
 This is part of the Gaussian(R) 16 program.  It is based on
 the Gaussian(R) 09 system (copyright 2009, Gaussian, Inc.),
 the Gaussian(R) 03 system (copyright 2003, Gaussian, Inc.),
 the Gaussian(R) 98 system (copyright 1998, Gaussian, Inc.),
 the Gaussian(R) 94 system (copyright 1995, Gaussian, Inc.),
 the Gaussian 92(TM) system (copyright 1992, Gaussian, Inc.),
 the Gaussian 90(TM) system (copyright 1990, Gaussian, Inc.),
 the Gaussian 88(TM) system (copyright 1988, Gaussian, Inc.),
 the Gaussian 86(TM) system (copyright 1986, Carnegie Mellon
 University), and the Gaussian 82(TM) system (copyright 1983,
 Carnegie Mellon University). Gaussian is a federally registered
 trademark of Gaussian, Inc.
  
 This software contains proprietary and confidential information,
 including trade secrets, belonging to Gaussian, Inc.
  
 This software is provided under written license and may be
 used, copied, transmitted, or stored only in accord with that
 written license.
  
 The following legend is applicable only to US Government
 contracts under FAR:
  
                    RESTRICTED RIGHTS LEGEND
  
 Use, reproduction and disclosure by the US Government is
 subject to restrictions as set forth in subparagraphs (a)
 and (c) of the Commercial Computer Software - Restricted
 Rights clause in FAR 52.227-19.
  
 Gaussian, Inc.
 340 Quinnipiac St., Bldg. 40, Wallingford CT 06492
  
  
 ---------------------------------------------------------------
 Warning -- This program may not be used in any manner that
 competes with the business of Gaussian, Inc. or will provide
 assistance to any competitor of Gaussian, Inc.  The licensee
 of this program is prohibited from giving any competitor of
 Gaussian, Inc. access to this program.  By using this program,
 the user acknowledges that Gaussian, Inc. is engaged in the
 business of creating and licensing software in the field of
 computational chemistry and represents and warrants to the
 licensee that it is not a competitor of Gaussian, Inc. and that
 it will not use this program in any manner prohibited above.
 ---------------------------------------------------------------
  

 Cite this work as:
 Gaussian 16, Revision C.01,
 M. J. Frisch, G. W. Trucks, H. B. Schlegel, G. E. Scuseria, 
 M. A. Robb, J. R. Cheeseman, G. Scalmani, V. Barone, 
 G. A. Petersson, H. Nakatsuji, X. Li, M. Caricato, A. V. Marenich, 
 J. Bloino, B. G. Janesko, R. Gomperts, B. Mennucci, H. P. Hratchian, 
 J. V. Ortiz, A. F. Izmaylov, J. L. Sonnenberg, D. Williams-Young, 
 F. Ding, F. Lipparini, F. Egidi, J. Goings, B. Peng, A. Petrone, 
 T. Henderson, D. Ranasinghe, V. G. Zakrzewski, J. Gao, N. Rega, 
 G. Zheng, W. Liang, M. Hada, M. Ehara, K. Toyota, R. Fukuda, 
 J. Hasegawa, M. Ishida, T. Nakajima, Y. Honda, O. Kitao, H. Nakai, 
 T. Vreven, K. Throssell, J. A. Montgomery, Jr., J. E. Peralta, 
 F. Ogliaro, M. J. Bearpark, J. J. Heyd, E. N. Brothers, K. N. Kudin, 
 V. N. Staroverov, T. A. Keith, R. Kobayashi, J. Normand, 
 K. Raghavachari, A. P. Rendell, J. C. Burant, S. S. Iyengar, 
 J. Tomasi, M. Cossi, J. M. Millam, M. Klene, C. Adamo, R. Cammi, 
 J. W. Ochterski, R. L. Martin, K. Morokuma, O. Farkas, 
 J. B. Foresman, and D. J. Fox, Gaussian, Inc., Wallingford CT, 2019.
 
 ******************************************
 Gaussian 16:  ES64L-G16RevC.01  3-Jul-2019
                 5-Aug-2022 
 ******************************************
 %chk=/home/rong/gdata/062722/A9-recal.chk
 %mem=200GB
 %nprocshared=60
 Will use up to   60 processors via shared memory.
 ----------------------------------------------------
 # opt freq b3lyp/6-31g(d) scrf=(smd,solvent=toluene)
 ----------------------------------------------------
 1/18=20,19=15,26=3,38=1/1,3;
 2/9=110,12=2,17=6,18=5,40=1/2;
 3/5=1,6=6,7=1,11=2,25=1,30=1,70=32201,71=1,72=13,74=-5/1,2,3;
 4//1;
 5/5=2,38=5,53=13/2;
 6/7=2,8=2,9=2,10=2,28=1/1;
 7//1,2,3,16;
 1/18=20,19=15,26=3/3(2);
 2/9=110/2;
 99//99;
 2/9=110/2;
 3/5=1,6=6,7=1,11=2,25=1,30=1,70=32205,71=1,72=13,74=-5/1,2,3;
 4/5=5,16=3,69=1/1;
 5/5=2,38=5,53=13/2;
 7//1,2,3,16;
 1/18=20,19=15,26=3/3(-5);
 2/9=110/2;
 6/7=2,8=2,9=2,10=2,19=2,28=1/1;
 99/9=1/99;
 --------
 A9 recal
 --------
 Symbolic Z-matrix:
 Charge =  0 Multiplicity = 1
 C                     0.35059  -0.56954  -0.77331 
 C                    -0.94191  -0.02114  -0.80568 
 C                    -1.16739   1.11337  -0.00014 
 C                    -0.1472    1.66691   0.79564 
 C                     1.11454   1.07314   0.78161 
 C                     1.3972   -0.05457   0.00177 
 H                     0.54431  -1.43981  -1.3838 
 H                     1.88986   1.51485   1.4028 
 O                    -2.41918   1.68463  -0.00015 
 H                    -2.70741   2.46141  -0.50417 
 C                    -2.05668  -0.62867  -1.67734 
 C                    -2.33899  -2.03741  -1.22207 
 C                    -1.64419  -0.5807   -3.12613 
 H                    -2.97206   0.0033   -1.52776 
 H                    -2.6421   -2.04641  -0.14742 
 H                    -3.16398  -2.48803  -1.82521 
 H                    -1.43142  -2.67793  -1.3382 
 H                    -1.441     0.47172  -3.43902 
 H                    -0.71842  -1.18319  -3.29185 
 H                    -2.45107  -0.99345  -3.77888 
 C                    -0.41949   2.90712   1.66703 
 H                    -0.69068   3.73084   1.04027 
 H                    -1.21927   2.69725   2.34616 
 H                     0.4623    3.15498   2.22013 
 C                     2.7956   -0.69959  -0.00356 
 H                     2.72107  -1.71542   0.32423 
 C                     3.37292  -0.66176  -1.43074 
 H                     4.43462  -0.78826  -1.38948 
 H                     2.94199  -1.45087  -2.01084 
 H                     3.14329   0.28013  -1.88353 
 C                     3.72394   0.07959   0.94654 
 H                     3.80568   1.09316   0.61354 
 H                     3.31812   0.06101   1.93642 
 H                     4.69302  -0.37403   0.94978 
 

 GradGradGradGradGradGradGradGradGradGradGradGradGradGradGradGradGradGrad
 Berny optimization.
 Initialization pass.
                           ----------------------------
                           !    Initial Parameters    !
                           ! (Angstroms and Degrees)  !
 --------------------------                            --------------------------
 ! Name  Definition              Value          Derivative Info.                !
 --------------------------------------------------------------------------------
 ! R1    R(1,2)                  1.4044         estimate D2E/DX2                !
 ! R2    R(1,6)                  1.4005         estimate D2E/DX2                !
 ! R3    R(1,7)                  1.0805         estimate D2E/DX2                !
 ! R4    R(2,3)                  1.4096         estimate D2E/DX2                !
 ! R5    R(2,11)                 1.54           estimate D2E/DX2                !
 ! R6    R(3,4)                  1.4073         estimate D2E/DX2                !
 ! R7    R(3,9)                  1.376          estimate D2E/DX2                !
 ! R8    R(4,5)                  1.3945         estimate D2E/DX2                !
 ! R9    R(4,21)                 1.54           estimate D2E/DX2                !
 ! R10   R(5,6)                  1.3999         estimate D2E/DX2                !
 ! R11   R(5,8)                  1.0872         estimate D2E/DX2                !
 ! R12   R(6,25)                 1.54           estimate D2E/DX2                !
 ! R13   R(9,10)                 0.9698         estimate D2E/DX2                !
 ! R14   R(11,12)                1.5071         estimate D2E/DX2                !
 ! R15   R(11,13)                1.5071         estimate D2E/DX2                !
 ! R16   R(11,14)                1.1224         estimate D2E/DX2                !
 ! R17   R(12,15)                1.1166         estimate D2E/DX2                !
 ! R18   R(12,16)                1.1169         estimate D2E/DX2                !
 ! R19   R(12,17)                1.1169         estimate D2E/DX2                !
 ! R20   R(13,18)                1.1166         estimate D2E/DX2                !
 ! R21   R(13,19)                1.1169         estimate D2E/DX2                !
 ! R22   R(13,20)                1.1169         estimate D2E/DX2                !
 ! R23   R(21,22)                1.07           estimate D2E/DX2                !
 ! R24   R(21,23)                1.07           estimate D2E/DX2                !
 ! R25   R(21,24)                1.07           estimate D2E/DX2                !
 ! R26   R(25,26)                1.07           estimate D2E/DX2                !
 ! R27   R(25,27)                1.54           estimate D2E/DX2                !
 ! R28   R(25,31)                1.54           estimate D2E/DX2                !
 ! R29   R(27,28)                1.07           estimate D2E/DX2                !
 ! R30   R(27,29)                1.07           estimate D2E/DX2                !
 ! R31   R(27,30)                1.07           estimate D2E/DX2                !
 ! R32   R(31,32)                1.07           estimate D2E/DX2                !
 ! R33   R(31,33)                1.07           estimate D2E/DX2                !
 ! R34   R(31,34)                1.07           estimate D2E/DX2                !
 ! A1    A(2,1,6)              123.8447         estimate D2E/DX2                !
 ! A2    A(2,1,7)              117.8053         estimate D2E/DX2                !
 ! A3    A(6,1,7)              118.3501         estimate D2E/DX2                !
 ! A4    A(1,2,3)              116.6373         estimate D2E/DX2                !
 ! A5    A(1,2,11)             121.6814         estimate D2E/DX2                !
 ! A6    A(3,2,11)             121.6814         estimate D2E/DX2                !
 ! A7    A(2,3,4)              121.5859         estimate D2E/DX2                !
 ! A8    A(2,3,9)              118.6645         estimate D2E/DX2                !
 ! A9    A(4,3,9)              119.7496         estimate D2E/DX2                !
 ! A10   A(3,4,5)              118.8643         estimate D2E/DX2                !
 ! A11   A(3,4,21)             120.5679         estimate D2E/DX2                !
 ! A12   A(5,4,21)             120.5679         estimate D2E/DX2                !
 ! A13   A(4,5,6)              122.0917         estimate D2E/DX2                !
 ! A14   A(4,5,8)              117.8051         estimate D2E/DX2                !
 ! A15   A(6,5,8)              120.1032         estimate D2E/DX2                !
 ! A16   A(1,6,5)              116.9762         estimate D2E/DX2                !
 ! A17   A(1,6,25)             121.5119         estimate D2E/DX2                !
 ! A18   A(5,6,25)             121.5119         estimate D2E/DX2                !
 ! A19   A(3,9,10)             127.08           estimate D2E/DX2                !
 ! A20   A(2,11,12)            109.4724         estimate D2E/DX2                !
 ! A21   A(2,11,13)            109.4767         estimate D2E/DX2                !
 ! A22   A(2,11,14)            107.0263         estimate D2E/DX2                !
 ! A23   A(12,11,13)           111.802          estimate D2E/DX2                !
 ! A24   A(12,11,14)           109.4684         estimate D2E/DX2                !
 ! A25   A(13,11,14)           109.4761         estimate D2E/DX2                !
 ! A26   A(11,12,15)           110.4325         estimate D2E/DX2                !
 ! A27   A(11,12,16)           110.6308         estimate D2E/DX2                !
 ! A28   A(11,12,17)           110.6361         estimate D2E/DX2                !
 ! A29   A(15,12,16)           108.4186         estimate D2E/DX2                !
 ! A30   A(15,12,17)           108.4228         estimate D2E/DX2                !
 ! A31   A(16,12,17)           108.2212         estimate D2E/DX2                !
 ! A32   A(11,13,18)           110.4371         estimate D2E/DX2                !
 ! A33   A(11,13,19)           110.6289         estimate D2E/DX2                !
 ! A34   A(11,13,20)           110.629          estimate D2E/DX2                !
 ! A35   A(18,13,19)           108.422          estimate D2E/DX2                !
 ! A36   A(18,13,20)           108.421          estimate D2E/DX2                !
 ! A37   A(19,13,20)           108.224          estimate D2E/DX2                !
 ! A38   A(4,21,22)            109.4712         estimate D2E/DX2                !
 ! A39   A(4,21,23)            109.4712         estimate D2E/DX2                !
 ! A40   A(4,21,24)            109.4712         estimate D2E/DX2                !
 ! A41   A(22,21,23)           109.4713         estimate D2E/DX2                !
 ! A42   A(22,21,24)           109.4712         estimate D2E/DX2                !
 ! A43   A(23,21,24)           109.4712         estimate D2E/DX2                !
 ! A44   A(6,25,26)            109.4712         estimate D2E/DX2                !
 ! A45   A(6,25,27)            109.4712         estimate D2E/DX2                !
 ! A46   A(6,25,31)            109.4712         estimate D2E/DX2                !
 ! A47   A(26,25,27)           109.4713         estimate D2E/DX2                !
 ! A48   A(26,25,31)           109.4712         estimate D2E/DX2                !
 ! A49   A(27,25,31)           109.4712         estimate D2E/DX2                !
 ! A50   A(25,27,28)           109.4712         estimate D2E/DX2                !
 ! A51   A(25,27,29)           109.4712         estimate D2E/DX2                !
 ! A52   A(25,27,30)           109.4712         estimate D2E/DX2                !
 ! A53   A(28,27,29)           109.4713         estimate D2E/DX2                !
 ! A54   A(28,27,30)           109.4712         estimate D2E/DX2                !
 ! A55   A(29,27,30)           109.4712         estimate D2E/DX2                !
 ! A56   A(25,31,32)           109.4712         estimate D2E/DX2                !
 ! A57   A(25,31,33)           109.4712         estimate D2E/DX2                !
 ! A58   A(25,31,34)           109.4712         estimate D2E/DX2                !
 ! A59   A(32,31,33)           109.4713         estimate D2E/DX2                !
 ! A60   A(32,31,34)           109.4712         estimate D2E/DX2                !
 ! A61   A(33,31,34)           109.4712         estimate D2E/DX2                !
 ! D1    D(6,1,2,3)             -0.0004         estimate D2E/DX2                !
 ! D2    D(6,1,2,11)           179.9996         estimate D2E/DX2                !
 ! D3    D(7,1,2,3)            179.9983         estimate D2E/DX2                !
 ! D4    D(7,1,2,11)            -0.0017         estimate D2E/DX2                !
 ! D5    D(2,1,6,5)             -0.0004         estimate D2E/DX2                !
 ! D6    D(2,1,6,25)           179.9996         estimate D2E/DX2                !
 ! D7    D(7,1,6,5)           -179.9991         estimate D2E/DX2                !
 ! D8    D(7,1,6,25)             0.0009         estimate D2E/DX2                !
 ! D9    D(1,2,3,4)              0.0007         estimate D2E/DX2                !
 ! D10   D(1,2,3,9)            179.9997         estimate D2E/DX2                !
 ! D11   D(11,2,3,4)          -179.9993         estimate D2E/DX2                !
 ! D12   D(11,2,3,9)            -0.0003         estimate D2E/DX2                !
 ! D13   D(1,2,11,12)           62.1632         estimate D2E/DX2                !
 ! D14   D(1,2,11,13)          -60.7173         estimate D2E/DX2                !
 ! D15   D(1,2,11,14)         -179.2828         estimate D2E/DX2                !
 ! D16   D(3,2,11,12)         -117.8368         estimate D2E/DX2                !
 ! D17   D(3,2,11,13)          119.2827         estimate D2E/DX2                !
 ! D18   D(3,2,11,14)            0.7172         estimate D2E/DX2                !
 ! D19   D(2,3,4,5)             -0.0003         estimate D2E/DX2                !
 ! D20   D(2,3,4,21)           179.9997         estimate D2E/DX2                !
 ! D21   D(9,3,4,5)           -179.9993         estimate D2E/DX2                !
 ! D22   D(9,3,4,21)             0.0007         estimate D2E/DX2                !
 ! D23   D(2,3,9,10)           -98.7087         estimate D2E/DX2                !
 ! D24   D(4,3,9,10)            81.2903         estimate D2E/DX2                !
 ! D25   D(3,4,5,6)             -0.0005         estimate D2E/DX2                !
 ! D26   D(3,4,5,8)            179.9999         estimate D2E/DX2                !
 ! D27   D(21,4,5,6)           179.9995         estimate D2E/DX2                !
 ! D28   D(21,4,5,8)            -0.0001         estimate D2E/DX2                !
 ! D29   D(3,4,21,22)          -61.9541         estimate D2E/DX2                !
 ! D30   D(3,4,21,23)           58.0459         estimate D2E/DX2                !
 ! D31   D(3,4,21,24)          178.0459         estimate D2E/DX2                !
 ! D32   D(5,4,21,22)          118.0459         estimate D2E/DX2                !
 ! D33   D(5,4,21,23)         -121.9541         estimate D2E/DX2                !
 ! D34   D(5,4,21,24)           -1.9541         estimate D2E/DX2                !
 ! D35   D(4,5,6,1)              0.0009         estimate D2E/DX2                !
 ! D36   D(4,5,6,25)          -179.9991         estimate D2E/DX2                !
 ! D37   D(8,5,6,1)           -179.9996         estimate D2E/DX2                !
 ! D38   D(8,5,6,25)             0.0004         estimate D2E/DX2                !
 ! D39   D(1,6,25,26)          -59.675          estimate D2E/DX2                !
 ! D40   D(1,6,25,27)           60.325          estimate D2E/DX2                !
 ! D41   D(1,6,25,31)         -179.675          estimate D2E/DX2                !
 ! D42   D(5,6,25,26)          120.325          estimate D2E/DX2                !
 ! D43   D(5,6,25,27)         -119.675          estimate D2E/DX2                !
 ! D44   D(5,6,25,31)            0.325          estimate D2E/DX2                !
 ! D45   D(2,11,12,15)          58.5143         estimate D2E/DX2                !
 ! D46   D(2,11,12,16)         178.5495         estimate D2E/DX2                !
 ! D47   D(2,11,12,17)         -61.5296         estimate D2E/DX2                !
 ! D48   D(13,11,12,15)       -179.9971         estimate D2E/DX2                !
 ! D49   D(13,11,12,16)        -59.9619         estimate D2E/DX2                !
 ! D50   D(13,11,12,17)         59.959          estimate D2E/DX2                !
 ! D51   D(14,11,12,15)        -58.5119         estimate D2E/DX2                !
 ! D52   D(14,11,12,16)         61.5233         estimate D2E/DX2                !
 ! D53   D(14,11,12,17)       -178.5558         estimate D2E/DX2                !
 ! D54   D(2,11,13,18)         -58.5171         estimate D2E/DX2                !
 ! D55   D(2,11,13,19)          61.5243         estimate D2E/DX2                !
 ! D56   D(2,11,13,20)        -178.5572         estimate D2E/DX2                !
 ! D57   D(12,11,13,18)        179.9967         estimate D2E/DX2                !
 ! D58   D(12,11,13,19)        -59.9619         estimate D2E/DX2                !
 ! D59   D(12,11,13,20)         59.9566         estimate D2E/DX2                !
 ! D60   D(14,11,13,18)         58.516          estimate D2E/DX2                !
 ! D61   D(14,11,13,19)        178.5573         estimate D2E/DX2                !
 ! D62   D(14,11,13,20)        -61.5241         estimate D2E/DX2                !
 ! D63   D(6,25,27,28)         160.7667         estimate D2E/DX2                !
 ! D64   D(6,25,27,29)         -79.2333         estimate D2E/DX2                !
 ! D65   D(6,25,27,30)          40.7667         estimate D2E/DX2                !
 ! D66   D(26,25,27,28)        -79.2333         estimate D2E/DX2                !
 ! D67   D(26,25,27,29)         40.7667         estimate D2E/DX2                !
 ! D68   D(26,25,27,30)        160.7667         estimate D2E/DX2                !
 ! D69   D(31,25,27,28)         40.7667         estimate D2E/DX2                !
 ! D70   D(31,25,27,29)        160.7667         estimate D2E/DX2                !
 ! D71   D(31,25,27,30)        -79.2333         estimate D2E/DX2                !
 ! D72   D(6,25,31,32)         -60.5217         estimate D2E/DX2                !
 ! D73   D(6,25,31,33)          59.4783         estimate D2E/DX2                !
 ! D74   D(6,25,31,34)         179.4783         estimate D2E/DX2                !
 ! D75   D(26,25,31,32)        179.4783         estimate D2E/DX2                !
 ! D76   D(26,25,31,33)        -60.5216         estimate D2E/DX2                !
 ! D77   D(26,25,31,34)         59.4783         estimate D2E/DX2                !
 ! D78   D(27,25,31,32)         59.4783         estimate D2E/DX2                !
 ! D79   D(27,25,31,33)        179.4783         estimate D2E/DX2                !
 ! D80   D(27,25,31,34)        -60.5217         estimate D2E/DX2                !
 --------------------------------------------------------------------------------
 Trust Radius=3.00D-01 FncErr=1.00D-07 GrdErr=1.00D-06 EigMax=2.50D+02 EigMin=1.00D-04
 Number of steps in this run=    185 maximum allowed number of steps=    204.
 GradGradGradGradGradGradGradGradGradGradGradGradGradGradGradGradGradGrad

                          Input orientation:                          
 ---------------------------------------------------------------------
 Center     Atomic      Atomic             Coordinates (Angstroms)
 Number     Number       Type             X           Y           Z
 ---------------------------------------------------------------------
      1          6           0        0.350589   -0.569544   -0.773313
      2          6           0       -0.941911   -0.021142   -0.805681
      3          6           0       -1.167394    1.113369   -0.000136
      4          6           0       -0.147203    1.666907    0.795637
      5          6           0        1.114544    1.073136    0.781607
      6          6           0        1.397201   -0.054568    0.001774
      7          1           0        0.544307   -1.439806   -1.383797
      8          1           0        1.889860    1.514846    1.402796
      9          8           0       -2.419181    1.684633   -0.000151
     10          1           0       -2.707413    2.461407   -0.504175
     11          6           0       -2.056681   -0.628675   -1.677341
     12          6           0       -2.338985   -2.037409   -1.222069
     13          6           0       -1.644187   -0.580701   -3.126127
     14          1           0       -2.972059    0.003304   -1.527759
     15          1           0       -2.642099   -2.046411   -0.147423
     16          1           0       -3.163980   -2.488031   -1.825213
     17          1           0       -1.431422   -2.677935   -1.338196
     18          1           0       -1.441002    0.471718   -3.439018
     19          1           0       -0.718417   -1.183186   -3.291846
     20          1           0       -2.451066   -0.993451   -3.778880
     21          6           0       -0.419488    2.907120    1.667034
     22          1           0       -0.690683    3.730840    1.040265
     23          1           0       -1.219266    2.697247    2.346157
     24          1           0        0.462300    3.154980    2.220130
     25          6           0        2.795599   -0.699591   -0.003555
     26          1           0        2.721073   -1.715417    0.324232
     27          6           0        3.372923   -0.661763   -1.430744
     28          1           0        4.434617   -0.788263   -1.389481
     29          1           0        2.941989   -1.450867   -2.010839
     30          1           0        3.143289    0.280126   -1.883529
     31          6           0        3.723936    0.079586    0.946536
     32          1           0        3.805684    1.093159    0.613539
     33          1           0        3.318119    0.061007    1.936418
     34          1           0        4.693019   -0.374031    0.949778
 ---------------------------------------------------------------------
                    Distance matrix (angstroms):
                    1          2          3          4          5
     1  C    0.000000
     2  C    1.404403   0.000000
     3  C    2.394634   1.409560   0.000000
     4  C    2.776889   2.458717   1.407283   0.000000
     5  C    2.387426   2.818853   2.412464   1.394550   0.000000
     6  C    1.400485   2.474782   2.818019   2.445176   1.399911
     7  H    1.080543   2.134401   3.370925   3.857432   3.365861
     8  H    3.383709   3.905836   3.387654   2.131054   1.087243
     9  O    3.653863   2.396012   1.375977   2.407379   3.670461
    10  H    4.313985   3.061201   2.107823   2.979163   4.264726
    11  C    2.572102   1.540000   2.576541   3.877037   4.358813
    12  C    3.096743   2.488078   3.576752   4.753631   5.061332
    13  C    3.084638   2.488126   3.587343   4.761610   5.061241
    14  H    3.455044   2.154877   2.612028   4.018152   4.814357
    15  H    3.395446   2.725006   3.490080   4.571936   4.970618
    16  H    4.139961   3.473122   4.504148   5.764834   6.146803
    17  H    2.817794   2.753497   4.029157   5.008005   5.004602
    18  H    3.376390   2.725155   3.508916   4.586360   4.970533
    19  H    2.803986   2.753419   4.038700   5.015659   5.004373
    20  H    4.130666   3.473162   4.512806   5.771611   6.146739
    21  C    4.316886   3.868069   2.560539   1.540000   2.549654
    22  H    4.781905   4.189033   2.856719   2.148263   3.223219
    23  H    4.781993   4.171408   2.831334   2.148263   3.245339
    24  H    4.779671   4.605984   3.428360   2.148263   2.613206
    25  C    2.566616   3.882355   4.357999   3.859937   2.566123
    26  H    2.852512   4.191029   4.819483   4.459748   3.250562
    27  C    3.094386   4.406687   5.080571   4.771872   3.606195
    28  H    4.136035   5.462266   6.076924   5.638766   4.381930
    29  H    3.003924   4.310591   5.244546   5.209600   4.184244
    30  H    3.123090   4.235726   4.777389   4.464127   3.442037
    31  C    3.841708   4.985031   5.088222   4.186655   2.797011
    32  H    4.077453   5.078928   5.010839   3.998458   2.696457
    33  H    4.067735   5.066923   4.997752   3.986070   2.685839
    34  H    4.675892   5.912580   6.120386   5.255182   3.863684
                    6          7          8          9         10
     6  C    0.000000
     7  H    2.136848   0.000000
     8  H    2.160703   4.278503   0.000000
     9  O    4.193995   4.523146   4.534856   0.000000
    10  H    4.840865   5.154306   5.066303   0.969791   0.000000
    11  C    3.883082   2.740299   5.445834   2.880237   3.368735
    12  C    4.403242   2.949010   6.114864   3.918305   4.570608
    13  C    4.394385   2.926308   6.114896   3.937522   4.154456
    14  H    4.629606   3.803697   5.874620   2.337975   2.675823
    15  H    4.506179   3.471278   5.968616   3.740598   4.522384
    16  H    5.483064   3.878790   7.210018   4.614835   5.143008
    17  H    4.083954   2.332069   6.010272   4.668836   5.360651
    18  H    4.491261   3.437922   5.968746   3.775421   3.765098
    19  H    4.074009   2.302385   6.010171   4.685322   5.001027
    20  H    5.475766   3.861077   7.210060   4.631625   4.767122
    21  C    3.852928   5.397429   2.709490   2.876239   3.185499
    22  H    4.446015   5.842675   3.420710   2.873522   2.839710
    23  H    4.462569   5.842769   3.457552   2.823179   3.224064
    24  H    4.012025   5.840126   2.322929   3.923582   4.236739
    25  C    1.540000   2.742500   2.775234   5.733975   6.365978
    26  H    2.148263   2.780582   3.505541   6.171529   6.899316
    27  C    2.514809   2.934046   3.868598   6.410977   6.898057
    28  H    3.420496   3.944497   4.424581   7.417546   7.896373
    29  H    2.895968   2.478343   4.642773   6.528121   7.035031
    30  H    2.591371   3.156359   3.727674   6.038279   6.394631
    31  C    2.514810   4.224813   2.373180   6.419523   7.009984
    32  H    2.737211   4.587139   2.114505   6.282945   6.748468
    33  H    2.728760   4.579334   2.106733   6.269216   6.930039
    34  H    3.444297   4.877834   3.410394   7.464840   8.057299
                   11         12         13         14         15
    11  C    0.000000
    12  C    1.507150   0.000000
    13  C    1.507128   2.496033   0.000000
    14  H    1.122358   2.158411   2.158492   0.000000
    15  H    2.166411   1.116612   3.466528   2.493097   0.000000
    16  H    2.169143   1.116897   2.764066   2.516359   1.811730
    17  H    2.169201   1.116884   2.764119   3.098151   1.811768
    18  H    2.166433   3.466548   1.116589   2.493283   4.314882
    19  H    2.169115   2.764040   1.116916   3.098171   3.785909
    20  H    2.169118   2.764000   1.116917   2.516447   3.785855
    21  C    5.134889   6.039848   6.053030   5.015422   5.724485
    22  H    5.315703   6.411533   6.071028   5.068920   6.212508
    23  H    5.286923   6.033488   6.393074   5.033570   5.544789
    24  H    5.987619   6.830581   6.853835   5.981183   6.503619
    25  C    5.133343   5.444125   5.429207   6.006924   5.603855
    26  H    5.292847   5.300841   5.678737   6.228613   5.394036
    27  C    5.435301   5.878932   5.296441   6.380479   6.304336
    28  H    6.499637   6.889853   6.325415   7.450137   7.294214
    29  H    5.076802   5.371674   4.799382   6.109332   5.916843
    30  H    5.282813   5.988641   5.020458   6.131939   6.472832
    31  C    6.387636   6.778166   6.770473   7.138928   6.800222
    32  H    6.525348   7.136307   6.818211   7.191018   7.211787
    33  H    6.513324   6.810449   7.117979   7.181238   6.656410
    34  H    7.247416   7.545385   7.537632   8.064365   7.602937
                   16         17         18         19         20
    16  H    0.000000
    17  H    1.809698   0.000000
    18  H    3.785913   3.786008   0.000000
    19  H    3.135987   2.561132   1.811766   0.000000
    20  H    2.561022   3.135936   1.811756   1.809772   0.000000
    21  C    6.988253   6.422481   5.748603   6.435095   6.999982
    22  H    7.280283   6.875912   5.590065   6.551000   6.974385
    23  H    6.933206   6.520127   6.202451   6.862630   7.256354
    24  H    7.833152   7.090187   6.545869   7.113062   7.853999
    25  C    6.483328   4.854155   5.578814   4.836841   6.470466
    26  H    6.312756   4.575294   6.022332   5.018902   6.641369
    27  C    6.798673   5.211069   5.337772   4.524892   6.288291
    28  H    7.798574   6.163108   6.349099   5.507151   7.291362
    29  H    6.196210   4.591826   4.994661   3.887313   5.693878
    30  H    6.888231   5.474987   4.844789   4.363188   6.042447
    31  C    7.856121   6.277072   6.787005   6.268411   7.849307
    32  H    8.206623   6.742233   6.658613   6.395410   7.924280
    33  H    7.916127   6.386160   7.191191   6.721338   8.189018
    34  H    8.596627   6.931924   7.589666   6.923131   8.589636
                   21         22         23         24         25
    21  C    0.000000
    22  H    1.070000   0.000000
    23  H    1.070000   1.747303   0.000000
    24  H    1.070000   1.747303   1.747303   0.000000
    25  C    5.112341   5.733450   5.760105   5.024617   0.000000
    26  H    5.747529   6.466413   6.251885   5.693615   1.070000
    27  C    6.059334   6.474082   6.829065   6.030599   1.540000
    28  H    6.823524   7.252218   7.620379   6.660162   2.148263
    29  H    6.619542   7.025356   7.314801   6.727836   2.148263
    30  H    5.674590   5.929194   6.539465   5.682649   2.148263
    31  C    5.067744   5.729686   5.765964   4.660296   1.540000
    32  H    4.717244   5.230371   5.552044   4.243873   2.148263
    33  H    4.705596   5.508290   5.263603   4.220055   2.148263
    34  H    6.117037   6.770702   6.807183   5.653910   2.148263
                   26         27         28         29         30
    26  H    0.000000
    27  C    2.148263   0.000000
    28  H    2.594737   1.070000   0.000000
    29  H    2.360370   1.070000   1.747303   0.000000
    30  H    3.005772   1.070000   1.747303   1.747303   0.000000
    31  C    2.148263   2.514809   2.591371   3.420496   2.895968
    32  H    3.024596   2.728759   2.819113   3.755716   2.708346
    33  H    2.472102   3.444296   3.609631   4.243592   3.830218
    34  H    2.465602   2.737212   2.389664   3.604294   3.295028
                   31         32         33         34
    31  C    0.000000
    32  H    1.070000   0.000000
    33  H    1.070000   1.747303   0.000000
    34  H    1.070000   1.747303   1.747303   0.000000
 Stoichiometry    C13H20O
 Framework group  C1[X(C13H20O)]
 Deg. of freedom    96
 Full point group                 C1      NOp   1
 Largest Abelian subgroup         C1      NOp   1
 Largest concise Abelian subgroup C1      NOp   1
                         Standard orientation:                         
 ---------------------------------------------------------------------
 Center     Atomic      Atomic             Coordinates (Angstroms)
 Number     Number       Type             X           Y           Z
 ---------------------------------------------------------------------
      1          6           0        0.068616   -0.885946    0.187017
      2          6           0       -1.153588   -0.206352    0.057723
      3          6           0       -1.087792    1.197606   -0.049207
      4          6           0        0.141838    1.881693   -0.027282
      5          6           0        1.319269    1.145979    0.103672
      6          6           0        1.315888   -0.249588    0.213814
      7          1           0        0.040147   -1.962889    0.270429
      8          1           0        2.259403    1.691895    0.118624
      9          8           0       -2.260720    1.905451   -0.177693
     10          1           0       -2.651277    2.246118   -0.997392
     11          6           0       -2.497940   -0.957186    0.033967
     12          6           0       -2.692744   -1.680251    1.341915
     13          6           0       -2.524064   -1.903996   -1.138340
     14          1           0       -3.303269   -0.185383   -0.090344
     15          1           0       -2.669547   -0.958469    2.193570
     16          1           0       -3.675460   -2.210852    1.355690
     17          1           0       -1.885481   -2.436195    1.497818
     18          1           0       -2.377970   -1.345351   -2.094029
     19          1           0       -1.712299   -2.665716   -1.047123
     20          1           0       -3.502377   -2.440492   -1.189136
     21          6           0        0.186431    3.416473   -0.145872
     22          1           0       -0.221699    3.713307   -1.089386
     23          1           0       -0.388553    3.852120    0.644384
     24          1           0        1.200530    3.750364   -0.075010
     25          6           0        2.624352   -1.048813    0.357909
     26          1           0        2.607057   -1.598942    1.275492
     27          6           0        2.761634   -2.026302   -0.824152
     28          1           0        3.783136   -2.330435   -0.918686
     29          1           0        2.148371   -2.885549   -0.649501
     30          1           0        2.448779   -1.542086   -1.725571
     31          6           0        3.820425   -0.078772    0.363432
     32          1           0        3.843011    0.464855   -0.557904
     33          1           0        3.720368    0.606185    1.179350
     34          1           0        4.728934   -0.633366    0.472686
 ---------------------------------------------------------------------
 Rotational constants (GHZ):           0.8242970           0.5196138           0.3529199
 Standard basis: 6-31G(d) (6D, 7F)
 There are   250 symmetry adapted cartesian basis functions of A   symmetry.
 There are   250 symmetry adapted basis functions of A   symmetry.
   250 basis functions,   472 primitive gaussians,   250 cartesian basis functions
    53 alpha electrons       53 beta electrons
       nuclear repulsion energy       914.9784384633 Hartrees.
 NAtoms=   34 NActive=   34 NUniq=   34 SFac= 1.00D+00 NAtFMM=   60 NAOKFM=F Big=F
 Integral buffers will be    131072 words long.
 Raffenetti 2 integral format.
 Two-electron integral symmetry is turned on.
 ------------------------------------------------------------------------------
 Polarizable Continuum Model (PCM)
 =================================
 Model                : PCM.
 Atomic radii         : SMD-Coulomb.
 Polarization charges : Total charges.
 Charge compensation  : None.
 Solution method      : On-the-fly selection.
 Cavity type          : VdW (van der Waals Surface) (Alpha=1.000).
 Cavity algorithm     : GePol (No added spheres)
                        Default sphere list used, NSphG=   34.
                        Lebedev-Laikov grids with approx.  5.0 points / Ang**2.
                        Smoothing algorithm: York/Karplus (Gamma=1.0000).
                        Polarization charges: spherical gaussians, with
                                              point-specific exponents (IZeta= 3).
                        Self-potential: point-specific (ISelfS= 7).
                        Self-field    : sphere-specific E.n sum rule (ISelfD= 2).
 1st derivatives      : Analytical E(r).r(x)/FMM algorithm (CHGder, D1EAlg=3).
                        Cavity 1st derivative terms included.
 Solvent              : Toluene, Eps=   2.374100 Eps(inf)=   2.238315
 ------------------------------------------------------------------------------
 ------------------------------------------------------------------------------
 Atomic radii for non-electrostatic terms: SMD-CDS.
 ------------------------------------------------------------------------------
 Nuclear repulsion after PCM non-electrostatic terms =      914.9700607205 Hartrees.
 One-electron integrals computed using PRISM.
 NBasis=   250 RedAO= T EigKep=  3.29D-04  NBF=   250
 NBsUse=   250 1.00D-06 EigRej= -1.00D+00 NBFU=   250
 ExpMin= 1.61D-01 ExpMax= 5.48D+03 ExpMxC= 8.25D+02 IAcc=3 IRadAn=         5 AccDes= 0.00D+00
 Harris functional with IExCor=  402 and IRadAn=       5 diagonalized for initial guess.
 HarFok:  IExCor=  402 AccDes= 0.00D+00 IRadAn=         5 IDoV= 1 UseB2=F ITyADJ=14
 ICtDFT=  3500011 ScaDFX=  1.000000  1.000000  1.000000  1.000000
 FoFCou: FMM=F IPFlag=           0 FMFlag=      100000 FMFlg1=           0
         NFxFlg=           0 DoJE=T BraDBF=F KetDBF=T FulRan=T
         wScrn=  0.000000 ICntrl=       500 IOpCl=  0 I1Cent=   200000004 NGrid=           0
         NMat0=    1 NMatS0=      1 NMatT0=    0 NMatD0=    1 NMtDS0=    0 NMtDT0=    0
 Petite list used in FoFCou.
 Requested convergence on RMS density matrix=1.00D-08 within 128 cycles.
 Requested convergence on MAX density matrix=1.00D-06.
 Requested convergence on             energy=1.00D-06.
 No special actions if energy rises.
 Inv3:  Mode=1 IEnd=    16652208.
 Iteration    1 A*A^-1 deviation from unit magnitude is 5.44D-15 for   2354.
 Iteration    1 A*A^-1 deviation from orthogonality  is 1.50D-15 for   2349   2214.
 Iteration    1 A^-1*A deviation from unit magnitude is 5.22D-15 for   2354.
 Iteration    1 A^-1*A deviation from orthogonality  is 7.84D-14 for   1159   1141.
 Error on total polarization charges =  0.03015
 SCF Done:  E(RB3LYP) =  -582.653975729     A.U. after   13 cycles
            NFock= 13  Conv=0.29D-08     -V/T= 2.0095
 SMD-CDS (non-electrostatic) energy       (kcal/mol) =      -5.26
 (included in total energy above)

 **********************************************************************

            Population analysis using the SCF Density.

 **********************************************************************

 Orbital symmetries:
       Occupied  (A) (A) (A) (A) (A) (A) (A) (A) (A) (A) (A) (A)
                 (A) (A) (A) (A) (A) (A) (A) (A) (A) (A) (A) (A)
                 (A) (A) (A) (A) (A) (A) (A) (A) (A) (A) (A) (A)
                 (A) (A) (A) (A) (A) (A) (A) (A) (A) (A) (A) (A)
                 (A) (A) (A) (A) (A)
       Virtual   (A) (A) (A) (A) (A) (A) (A) (A) (A) (A) (A) (A)
                 (A) (A) (A) (A) (A) (A) (A) (A) (A) (A) (A) (A)
                 (A) (A) (A) (A) (A) (A) (A) (A) (A) (A) (A) (A)
                 (A) (A) (A) (A) (A) (A) (A) (A) (A) (A) (A) (A)
                 (A) (A) (A) (A) (A) (A) (A) (A) (A) (A) (A) (A)
                 (A) (A) (A) (A) (A) (A) (A) (A) (A) (A) (A) (A)
                 (A) (A) (A) (A) (A) (A) (A) (A) (A) (A) (A) (A)
                 (A) (A) (A) (A) (A) (A) (A) (A) (A) (A) (A) (A)
                 (A) (A) (A) (A) (A) (A) (A) (A) (A) (A) (A) (A)
                 (A) (A) (A) (A) (A) (A) (A) (A) (A) (A) (A) (A)
                 (A) (A) (A) (A) (A) (A) (A) (A) (A) (A) (A) (A)
                 (A) (A) (A) (A) (A) (A) (A) (A) (A) (A) (A) (A)
                 (A) (A) (A) (A) (A) (A) (A) (A) (A) (A) (A) (A)
                 (A) (A) (A) (A) (A) (A) (A) (A) (A) (A) (A) (A)
                 (A) (A) (A) (A) (A) (A) (A) (A) (A) (A) (A) (A)
                 (A) (A) (A) (A) (A) (A) (A) (A) (A) (A) (A) (A)
                 (A) (A) (A) (A) (A)
 The electronic state is 1-A.
 Alpha  occ. eigenvalues --  -19.14809 -10.23006 -10.18317 -10.18206 -10.18136
 Alpha  occ. eigenvalues --  -10.18020 -10.17889 -10.17088 -10.17048 -10.16965
 Alpha  occ. eigenvalues --  -10.16919 -10.16759 -10.15793 -10.15723  -1.02519
 Alpha  occ. eigenvalues --   -0.84614  -0.80232  -0.78658  -0.74202  -0.71063
 Alpha  occ. eigenvalues --   -0.68595  -0.67047  -0.67017  -0.61556  -0.59929
 Alpha  occ. eigenvalues --   -0.56236  -0.53625  -0.52697  -0.48162  -0.46104
 Alpha  occ. eigenvalues --   -0.44238  -0.43344  -0.42581  -0.42260  -0.40388
 Alpha  occ. eigenvalues --   -0.40132  -0.39473  -0.38847  -0.38303  -0.37995
 Alpha  occ. eigenvalues --   -0.37287  -0.36539  -0.36380  -0.34360  -0.33180
 Alpha  occ. eigenvalues --   -0.33145  -0.32258  -0.31270  -0.30934  -0.30448
 Alpha  occ. eigenvalues --   -0.27568  -0.22677  -0.21265
 Alpha virt. eigenvalues --    0.01182   0.01599   0.07149   0.09563   0.11347
 Alpha virt. eigenvalues --    0.12914   0.13237   0.14972   0.15156   0.15500
 Alpha virt. eigenvalues --    0.15827   0.16123   0.16271   0.17041   0.18374
 Alpha virt. eigenvalues --    0.18882   0.19192   0.19635   0.19826   0.20165
 Alpha virt. eigenvalues --    0.20879   0.22290   0.22995   0.23753   0.24544
 Alpha virt. eigenvalues --    0.25979   0.26154   0.27464   0.29557   0.29898
 Alpha virt. eigenvalues --    0.30813   0.35949   0.37642   0.39111   0.40289
 Alpha virt. eigenvalues --    0.48594   0.49369   0.50922   0.51465   0.52421
 Alpha virt. eigenvalues --    0.53206   0.54417   0.55062   0.55700   0.55978
 Alpha virt. eigenvalues --    0.56629   0.57264   0.59586   0.60410   0.61210
 Alpha virt. eigenvalues --    0.62525   0.63487   0.64664   0.66250   0.67572
 Alpha virt. eigenvalues --    0.69985   0.70456   0.71930   0.72604   0.72876
 Alpha virt. eigenvalues --    0.75079   0.76554   0.78497   0.80220   0.80740
 Alpha virt. eigenvalues --    0.82009   0.82437   0.82909   0.83367   0.84843
 Alpha virt. eigenvalues --    0.85305   0.86640   0.87779   0.88667   0.89699
 Alpha virt. eigenvalues --    0.90435   0.90667   0.91491   0.92485   0.92561
 Alpha virt. eigenvalues --    0.93091   0.93803   0.94704   0.95671   0.96911
 Alpha virt. eigenvalues --    0.97856   0.98543   0.98849   0.99208   1.00936
 Alpha virt. eigenvalues --    1.02907   1.03606   1.04253   1.05285   1.07984
 Alpha virt. eigenvalues --    1.13180   1.15780   1.17665   1.18325   1.19772
 Alpha virt. eigenvalues --    1.21396   1.24677   1.27430   1.27956   1.36162
 Alpha virt. eigenvalues --    1.37864   1.39035   1.40337   1.41602   1.43356
 Alpha virt. eigenvalues --    1.46417   1.49742   1.52361   1.56553   1.58958
 Alpha virt. eigenvalues --    1.64689   1.65865   1.66750   1.69696   1.73588
 Alpha virt. eigenvalues --    1.75358   1.76789   1.78214   1.79403   1.80432
 Alpha virt. eigenvalues --    1.81108   1.82866   1.84992   1.85991   1.87332
 Alpha virt. eigenvalues --    1.87933   1.90073   1.92988   1.95283   1.96097
 Alpha virt. eigenvalues --    1.99119   2.00014   2.02762   2.04417   2.05291
 Alpha virt. eigenvalues --    2.06429   2.09698   2.11283   2.11720   2.12314
 Alpha virt. eigenvalues --    2.15374   2.19831   2.20305   2.22224   2.23241
 Alpha virt. eigenvalues --    2.25097   2.27557   2.28361   2.29346   2.30243
 Alpha virt. eigenvalues --    2.31476   2.32012   2.34174   2.36790   2.36949
 Alpha virt. eigenvalues --    2.38923   2.39680   2.42392   2.44881   2.48952
 Alpha virt. eigenvalues --    2.50887   2.53258   2.55788   2.57708   2.66265
 Alpha virt. eigenvalues --    2.67047   2.68969   2.73113   2.75438   2.76954
 Alpha virt. eigenvalues --    2.79843   2.84896   2.86655   2.92171   2.97622
 Alpha virt. eigenvalues --    3.07964   3.20352   3.41998   3.99435   4.12756
 Alpha virt. eigenvalues --    4.16357   4.20523   4.22225   4.24388   4.28867
 Alpha virt. eigenvalues --    4.32295   4.35670   4.40804   4.46411   4.60606
 Alpha virt. eigenvalues --    4.62579   4.80664
          Condensed to atoms (all electrons):
               1          2          3          4          5          6
     1  C    5.174352   0.477571  -0.017384  -0.049366  -0.038633   0.505940
     2  C    0.477571   4.888653   0.487030  -0.057546  -0.049199  -0.008233
     3  C   -0.017384   0.487030   4.777913   0.466332  -0.006496  -0.048827
     4  C   -0.049366  -0.057546   0.466332   4.873450   0.507975  -0.021516
     5  C   -0.038633  -0.049199  -0.006496   0.507975   5.106001   0.521221
     6  C    0.505940  -0.008233  -0.048827  -0.021516   0.521221   4.718017
     7  H    0.351390  -0.048347   0.005444   0.000321   0.006342  -0.048844
     8  H    0.006471   0.000244   0.005336  -0.044735   0.350319  -0.046908
     9  O    0.004399  -0.067652   0.261743  -0.077183   0.003862   0.000173
    10  H   -0.000039   0.000143  -0.022100  -0.001690   0.000012  -0.000008
    11  C   -0.058502   0.347369  -0.038144   0.007228   0.000348   0.004445
    12  C   -0.005552  -0.047400  -0.000183  -0.000209   0.000007   0.000156
    13  C   -0.005380  -0.045002   0.000236  -0.000272   0.000023   0.000162
    14  H    0.005381  -0.044097  -0.011120   0.000625  -0.000030  -0.000080
    15  H    0.000192  -0.001760   0.000751  -0.000017  -0.000014  -0.000043
    16  H    0.000109   0.005407   0.000003   0.000003  -0.000000   0.000001
    17  H    0.003658  -0.009241  -0.000124   0.000007  -0.000008   0.000070
    18  H    0.000225  -0.001866   0.000746  -0.000013  -0.000015  -0.000048
    19  H    0.003910  -0.009573  -0.000157   0.000006  -0.000009   0.000101
    20  H    0.000098   0.005211  -0.000013   0.000004  -0.000000   0.000001
    21  C    0.000468   0.007360  -0.056220   0.332881  -0.050867   0.006649
    22  H    0.000030  -0.000151  -0.003741  -0.026246   0.000949  -0.000186
    23  H    0.000000   0.000036  -0.003869  -0.027286   0.000215  -0.000132
    24  H    0.000010  -0.000123   0.003735  -0.030161  -0.001582   0.000131
    25  C   -0.059954   0.004846   0.000590   0.006827  -0.053849   0.370657
    26  H   -0.005151  -0.000174   0.000036  -0.000198   0.002277  -0.034724
    27  C   -0.003810   0.000140   0.000010  -0.000163  -0.001298  -0.046403
    28  H    0.000147   0.000002   0.000000   0.000002   0.000015   0.004933
    29  H    0.002719   0.000052  -0.000002   0.000010  -0.000137  -0.004487
    30  H    0.000171  -0.000175  -0.000026  -0.000063   0.001833  -0.003215
    31  C    0.004524  -0.000138  -0.000015   0.000737  -0.007766  -0.048090
    32  H   -0.000014  -0.000004  -0.000008   0.000166   0.001312  -0.007788
    33  H   -0.000124   0.000001  -0.000013   0.000233   0.000967  -0.005632
    34  H   -0.000103   0.000002   0.000000  -0.000014   0.000761   0.004304
               7          8          9         10         11         12
     1  C    0.351390   0.006471   0.004399  -0.000039  -0.058502  -0.005552
     2  C   -0.048347   0.000244  -0.067652   0.000143   0.347369  -0.047400
     3  C    0.005444   0.005336   0.261743  -0.022100  -0.038144  -0.000183
     4  C    0.000321  -0.044735  -0.077183  -0.001690   0.007228  -0.000209
     5  C    0.006342   0.350319   0.003862   0.000012   0.000348   0.000007
     6  C   -0.048844  -0.046908   0.000173  -0.000008   0.004445   0.000156
     7  H    0.613308  -0.000213  -0.000074   0.000003  -0.008259   0.000468
     8  H   -0.000213   0.610150  -0.000074   0.000003   0.000012   0.000000
     9  O   -0.000074  -0.000074   8.324548   0.241333  -0.014941   0.000535
    10  H    0.000003   0.000003   0.241333   0.357378   0.000605  -0.000043
    11  C   -0.008259   0.000012  -0.014941   0.000605   4.994547   0.368233
    12  C    0.000468   0.000000   0.000535  -0.000043   0.368233   5.125992
    13  C    0.000534   0.000000   0.000239   0.000080   0.362697  -0.058821
    14  H   -0.000057   0.000000   0.020304  -0.000971   0.369638  -0.039948
    15  H    0.000078  -0.000000   0.000145   0.000001  -0.031795   0.368713
    16  H   -0.000149   0.000000  -0.000004   0.000002  -0.033241   0.361270
    17  H    0.003325  -0.000000  -0.000017   0.000000  -0.034253   0.369832
    18  H    0.000079  -0.000000   0.000162  -0.000003  -0.032547   0.005854
    19  H    0.003241  -0.000000  -0.000016   0.000002  -0.033127  -0.006121
    20  H   -0.000149   0.000000  -0.000006  -0.000008  -0.033324  -0.003419
    21  C    0.000012  -0.010730   0.000827   0.000177  -0.000149   0.000002
    22  H   -0.000000   0.000157   0.002356   0.001877   0.000001  -0.000000
    23  H   -0.000000   0.000154   0.003822  -0.000702   0.000005  -0.000000
    24  H    0.000000   0.006794   0.000464  -0.000021   0.000001  -0.000000
    25  C   -0.008071  -0.015662   0.000001  -0.000000  -0.000135  -0.000001
    26  H    0.001915   0.000148   0.000000   0.000000  -0.000002  -0.000002
    27  C    0.001600   0.000417  -0.000000  -0.000000   0.000002   0.000001
    28  H   -0.000122  -0.000021   0.000000   0.000000  -0.000000  -0.000000
    29  H    0.002041  -0.000011  -0.000000   0.000000  -0.000003  -0.000000
    30  H    0.000222  -0.000009   0.000000   0.000000  -0.000001  -0.000000
    31  C    0.000133   0.007577  -0.000000  -0.000000   0.000001  -0.000000
    32  H    0.000001   0.001195   0.000000   0.000000  -0.000000  -0.000000
    33  H    0.000004   0.001944  -0.000000  -0.000000   0.000000   0.000000
    34  H   -0.000006  -0.000009  -0.000000   0.000000  -0.000000   0.000000
              13         14         15         16         17         18
     1  C   -0.005380   0.005381   0.000192   0.000109   0.003658   0.000225
     2  C   -0.045002  -0.044097  -0.001760   0.005407  -0.009241  -0.001866
     3  C    0.000236  -0.011120   0.000751   0.000003  -0.000124   0.000746
     4  C   -0.000272   0.000625  -0.000017   0.000003   0.000007  -0.000013
     5  C    0.000023  -0.000030  -0.000014  -0.000000  -0.000008  -0.000015
     6  C    0.000162  -0.000080  -0.000043   0.000001   0.000070  -0.000048
     7  H    0.000534  -0.000057   0.000078  -0.000149   0.003325   0.000079
     8  H    0.000000   0.000000  -0.000000   0.000000  -0.000000  -0.000000
     9  O    0.000239   0.020304   0.000145  -0.000004  -0.000017   0.000162
    10  H    0.000080  -0.000971   0.000001   0.000002   0.000000  -0.000003
    11  C    0.362697   0.369638  -0.031795  -0.033241  -0.034253  -0.032547
    12  C   -0.058821  -0.039948   0.368713   0.361270   0.369832   0.005854
    13  C    5.133527  -0.043589   0.005750  -0.003476  -0.006308   0.367061
    14  H   -0.043589   0.608567  -0.003260  -0.003407   0.005192  -0.003114
    15  H    0.005750  -0.003260   0.567617  -0.027566  -0.028697  -0.000208
    16  H   -0.003476  -0.003407  -0.027566   0.590345  -0.029476  -0.000067
    17  H   -0.006308   0.005192  -0.028697  -0.029476   0.580016  -0.000025
    18  H    0.367061  -0.003114  -0.000208  -0.000067  -0.000025   0.579545
    19  H    0.369100   0.005179  -0.000032  -0.000277   0.005210  -0.028889
    20  H    0.361554  -0.003272  -0.000065   0.003641  -0.000291  -0.028165
    21  C    0.000002  -0.000012   0.000000  -0.000000   0.000000   0.000000
    22  H    0.000000  -0.000003  -0.000000  -0.000000  -0.000000  -0.000000
    23  H   -0.000000  -0.000000   0.000000   0.000000   0.000000  -0.000000
    24  H   -0.000000  -0.000000  -0.000000   0.000000   0.000000  -0.000000
    25  C   -0.000000   0.000001   0.000000  -0.000000   0.000003   0.000000
    26  H    0.000001  -0.000000   0.000001   0.000000   0.000001  -0.000000
    27  C   -0.000006  -0.000000  -0.000000  -0.000000  -0.000001   0.000001
    28  H    0.000000   0.000000   0.000000  -0.000000   0.000000  -0.000000
    29  H   -0.000001  -0.000000   0.000000   0.000000  -0.000004  -0.000000
    30  H    0.000003  -0.000000   0.000000   0.000000  -0.000000   0.000000
    31  C   -0.000000  -0.000000  -0.000000   0.000000  -0.000000  -0.000000
    32  H    0.000000  -0.000000   0.000000   0.000000  -0.000000  -0.000000
    33  H   -0.000000  -0.000000  -0.000000  -0.000000   0.000000   0.000000
    34  H    0.000000   0.000000   0.000000  -0.000000   0.000000   0.000000
              19         20         21         22         23         24
     1  C    0.003910   0.000098   0.000468   0.000030   0.000000   0.000010
     2  C   -0.009573   0.005211   0.007360  -0.000151   0.000036  -0.000123
     3  C   -0.000157  -0.000013  -0.056220  -0.003741  -0.003869   0.003735
     4  C    0.000006   0.000004   0.332881  -0.026246  -0.027286  -0.030161
     5  C   -0.000009  -0.000000  -0.050867   0.000949   0.000215  -0.001582
     6  C    0.000101   0.000001   0.006649  -0.000186  -0.000132   0.000131
     7  H    0.003241  -0.000149   0.000012  -0.000000  -0.000000   0.000000
     8  H   -0.000000   0.000000  -0.010730   0.000157   0.000154   0.006794
     9  O   -0.000016  -0.000006   0.000827   0.002356   0.003822   0.000464
    10  H    0.000002  -0.000008   0.000177   0.001877  -0.000702  -0.000021
    11  C   -0.033127  -0.033324  -0.000149   0.000001   0.000005   0.000001
    12  C   -0.006121  -0.003419   0.000002  -0.000000  -0.000000  -0.000000
    13  C    0.369100   0.361554   0.000002   0.000000  -0.000000  -0.000000
    14  H    0.005179  -0.003272  -0.000012  -0.000003  -0.000000  -0.000000
    15  H   -0.000032  -0.000065   0.000000  -0.000000   0.000000  -0.000000
    16  H   -0.000277   0.003641  -0.000000  -0.000000   0.000000   0.000000
    17  H    0.005210  -0.000291   0.000000  -0.000000   0.000000   0.000000
    18  H   -0.028889  -0.028165   0.000000  -0.000000  -0.000000  -0.000000
    19  H    0.577789  -0.029176   0.000000   0.000000  -0.000000   0.000000
    20  H   -0.029176   0.589607  -0.000000   0.000000  -0.000000   0.000000
    21  C    0.000000  -0.000000   5.185448   0.364837   0.371710   0.364313
    22  H    0.000000   0.000000   0.364837   0.562857  -0.031385  -0.028422
    23  H   -0.000000  -0.000000   0.371710  -0.031385   0.539639  -0.026723
    24  H    0.000000   0.000000   0.364313  -0.028422  -0.026723   0.552986
    25  C   -0.000005  -0.000000  -0.000192   0.000002   0.000003  -0.000006
    26  H    0.000000  -0.000000   0.000002  -0.000000  -0.000000  -0.000000
    27  C    0.000006   0.000000   0.000002   0.000000  -0.000000   0.000000
    28  H    0.000000   0.000000  -0.000000   0.000000  -0.000000  -0.000000
    29  H    0.000059  -0.000000   0.000000  -0.000000   0.000000  -0.000000
    30  H    0.000006  -0.000000   0.000001  -0.000000  -0.000000   0.000000
    31  C   -0.000000   0.000000   0.000012  -0.000000  -0.000000  -0.000009
    32  H   -0.000000  -0.000000   0.000006  -0.000001   0.000000  -0.000008
    33  H   -0.000000   0.000000   0.000008   0.000000  -0.000001  -0.000004
    34  H    0.000000  -0.000000  -0.000000   0.000000   0.000000   0.000000
              25         26         27         28         29         30
     1  C   -0.059954  -0.005151  -0.003810   0.000147   0.002719   0.000171
     2  C    0.004846  -0.000174   0.000140   0.000002   0.000052  -0.000175
     3  C    0.000590   0.000036   0.000010   0.000000  -0.000002  -0.000026
     4  C    0.006827  -0.000198  -0.000163   0.000002   0.000010  -0.000063
     5  C   -0.053849   0.002277  -0.001298   0.000015  -0.000137   0.001833
     6  C    0.370657  -0.034724  -0.046403   0.004933  -0.004487  -0.003215
     7  H   -0.008071   0.001915   0.001600  -0.000122   0.002041   0.000222
     8  H   -0.015662   0.000148   0.000417  -0.000021  -0.000011  -0.000009
     9  O    0.000001   0.000000  -0.000000   0.000000  -0.000000   0.000000
    10  H   -0.000000   0.000000  -0.000000   0.000000   0.000000   0.000000
    11  C   -0.000135  -0.000002   0.000002  -0.000000  -0.000003  -0.000001
    12  C   -0.000001  -0.000002   0.000001  -0.000000  -0.000000  -0.000000
    13  C   -0.000000   0.000001  -0.000006   0.000000  -0.000001   0.000003
    14  H    0.000001  -0.000000  -0.000000   0.000000  -0.000000  -0.000000
    15  H    0.000000   0.000001  -0.000000   0.000000   0.000000   0.000000
    16  H   -0.000000   0.000000  -0.000000  -0.000000   0.000000   0.000000
    17  H    0.000003   0.000001  -0.000001   0.000000  -0.000004  -0.000000
    18  H    0.000000  -0.000000   0.000001  -0.000000  -0.000000   0.000000
    19  H   -0.000005   0.000000   0.000006   0.000000   0.000059   0.000006
    20  H   -0.000000  -0.000000   0.000000   0.000000  -0.000000  -0.000000
    21  C   -0.000192   0.000002   0.000002  -0.000000   0.000000   0.000001
    22  H    0.000002  -0.000000   0.000000   0.000000  -0.000000  -0.000000
    23  H    0.000003  -0.000000  -0.000000  -0.000000   0.000000  -0.000000
    24  H   -0.000006  -0.000000   0.000000  -0.000000  -0.000000   0.000000
    25  C    4.988014   0.375006   0.356431  -0.033111  -0.027602  -0.035226
    26  H    0.375006   0.605384  -0.047685   0.000286  -0.005975   0.006010
    27  C    0.356431  -0.047685   5.132326   0.367545   0.372904   0.375783
    28  H   -0.033111   0.000286   0.367545   0.574495  -0.029196  -0.028176
    29  H   -0.027602  -0.005975   0.372904  -0.029196   0.562913  -0.029019
    30  H   -0.035226   0.006010   0.375783  -0.028176  -0.029019   0.556318
    31  C    0.374798  -0.043320  -0.049436  -0.008593   0.005463  -0.003512
    32  H   -0.030584   0.006069  -0.006641   0.000232   0.000021   0.004035
    33  H   -0.028517  -0.003919   0.006164   0.000081  -0.000233  -0.000152
    34  H   -0.027523  -0.002919  -0.005640   0.005142  -0.000036  -0.000140
              31         32         33         34
     1  C    0.004524  -0.000014  -0.000124  -0.000103
     2  C   -0.000138  -0.000004   0.000001   0.000002
     3  C   -0.000015  -0.000008  -0.000013   0.000000
     4  C    0.000737   0.000166   0.000233  -0.000014
     5  C   -0.007766   0.001312   0.000967   0.000761
     6  C   -0.048090  -0.007788  -0.005632   0.004304
     7  H    0.000133   0.000001   0.000004  -0.000006
     8  H    0.007577   0.001195   0.001944  -0.000009
     9  O   -0.000000   0.000000  -0.000000  -0.000000
    10  H   -0.000000   0.000000  -0.000000   0.000000
    11  C    0.000001  -0.000000   0.000000  -0.000000
    12  C   -0.000000  -0.000000   0.000000   0.000000
    13  C   -0.000000   0.000000  -0.000000   0.000000
    14  H   -0.000000  -0.000000  -0.000000   0.000000
    15  H   -0.000000   0.000000  -0.000000   0.000000
    16  H    0.000000   0.000000  -0.000000  -0.000000
    17  H   -0.000000  -0.000000   0.000000   0.000000
    18  H   -0.000000  -0.000000   0.000000   0.000000
    19  H   -0.000000  -0.000000  -0.000000   0.000000
    20  H    0.000000  -0.000000   0.000000  -0.000000
    21  C    0.000012   0.000006   0.000008  -0.000000
    22  H   -0.000000  -0.000001   0.000000   0.000000
    23  H   -0.000000   0.000000  -0.000001   0.000000
    24  H   -0.000009  -0.000008  -0.000004   0.000000
    25  C    0.374798  -0.030584  -0.028517  -0.027523
    26  H   -0.043320   0.006069  -0.003919  -0.002919
    27  C   -0.049436  -0.006641   0.006164  -0.005640
    28  H   -0.008593   0.000232   0.000081   0.005142
    29  H    0.005463   0.000021  -0.000233  -0.000036
    30  H   -0.003512   0.004035  -0.000152  -0.000140
    31  C    5.116240   0.376766   0.373057   0.367111
    32  H    0.376766   0.565919  -0.035818  -0.030208
    33  H    0.373057  -0.035818   0.564702  -0.028455
    34  H    0.367111  -0.030208  -0.028455   0.572231
 Mulliken charges:
               1
     1  C   -0.297754
     2  C    0.166616
     3  C    0.198537
     4  C    0.139873
     5  C   -0.294537
     6  C    0.188201
     7  H    0.123831
     8  H    0.127451
     9  O   -0.704947
    10  H    0.423969
    11  C   -0.136707
    12  C   -0.439365
    13  C   -0.438113
    14  H    0.138075
    15  H    0.150209
    16  H    0.136881
    17  H    0.141131
    18  H    0.141288
    19  H    0.142772
    20  H    0.137772
    21  C   -0.516548
    22  H    0.157069
    23  H    0.174515
    24  H    0.158626
    25  C   -0.156740
    26  H    0.146934
    27  C   -0.452250
    28  H    0.146339
    29  H    0.150526
    30  H    0.155331
    31  C   -0.465541
    32  H    0.155351
    33  H    0.155706
    34  H    0.145500
 Sum of Mulliken charges =  -0.00000
 Mulliken charges with hydrogens summed into heavy atoms:
               1
     1  C   -0.173923
     2  C    0.166616
     3  C    0.198537
     4  C    0.139873
     5  C   -0.167086
     6  C    0.188201
     9  O   -0.280978
    11  C    0.001368
    12  C   -0.011144
    13  C   -0.016282
    21  C   -0.026338
    25  C   -0.009805
    27  C   -0.000055
    31  C   -0.008984
 Electronic spatial extent (au):  <R**2>=           3376.3475
 Charge=             -0.0000 electrons
 Dipole moment (field-independent basis, Debye):
    X=              0.0784    Y=              0.2892    Z=             -1.3774  Tot=              1.4096
 Quadrupole moment (field-independent basis, Debye-Ang):
   XX=            -81.9272   YY=            -81.9220   ZZ=            -86.8846
   XY=             -1.5546   XZ=              4.8141   YZ=             -4.5020
 Traceless Quadrupole moment (field-independent basis, Debye-Ang):
   XX=              1.6507   YY=              1.6559   ZZ=             -3.3067
   XY=             -1.5546   XZ=              4.8141   YZ=             -4.5020
 Octapole moment (field-independent basis, Debye-Ang**2):
  XXX=            -13.2337  YYY=             19.5440  ZZZ=             -4.5746  XYY=             -5.0530
  XXY=              7.0110  XXZ=            -11.6585  XZZ=             -7.5578  YZZ=             10.2938
  YYZ=             -6.7786  XYZ=              9.0425
 Hexadecapole moment (field-independent basis, Debye-Ang**3):
 XXXX=          -2565.1743 YYYY=          -1590.4579 ZZZZ=           -337.0429 XXXY=            -51.4986
 XXXZ=             41.3722 YYYX=            -40.7254 YYYZ=            -28.1077 ZZZX=             12.4396
 ZZZY=            -10.7474 XXYY=           -678.9655 XXZZ=           -485.6291 YYZZ=           -322.4587
 XXYZ=            -33.7537 YYXZ=             29.7081 ZZXY=            -26.8524
 N-N= 9.149700607205D+02 E-N=-3.181257005087D+03  KE= 5.771880869995D+02
 D1PCM: PCM CHGder 1st derivatives, ID1Alg=3 FixD1E=F DoIter=F DoCFld=F I1PDM=0.
 Calling FoFJK, ICntrl=      2127 FMM=F ISym2X=0 I1Cent= 0 IOpClX= 0 NMat=1 NMatS=1 NMatT=0.
 ***** Axes restored to original set *****
 -------------------------------------------------------------------
 Center     Atomic                   Forces (Hartrees/Bohr)
 Number     Number              X              Y              Z
 -------------------------------------------------------------------
      1        6          -0.003030940   -0.001974687    0.000300771
      2        6           0.002283003    0.005397366    0.005602294
      3        6           0.003323227    0.014143758   -0.017838077
      4        6          -0.005486018    0.009628322    0.006074918
      5        6          -0.000339127    0.000609338    0.001937159
      6        6          -0.002997799   -0.004102941    0.002959129
      7        1           0.001482906   -0.004901870   -0.002690044
      8        1          -0.003749621   -0.000044326   -0.000977000
      9        8          -0.025187297   -0.011789129    0.021919696
     10        1           0.022273794   -0.000423576   -0.005915212
     11        6           0.000886342    0.022996490    0.016991138
     12        6          -0.008591727   -0.021326312    0.007626928
     13        6           0.002762772    0.002164578   -0.023817699
     14        1           0.013350644   -0.009909909   -0.002228231
     15        1           0.003213240   -0.002944500   -0.012326707
     16        1           0.008774427    0.002749197    0.007219217
     17        1          -0.011700201    0.004896615    0.002109212
     18        1          -0.001341294   -0.012763896    0.000432402
     19        1          -0.010691556    0.007426984   -0.001177346
     20        1           0.009662653    0.004481355    0.004923630
     21        6           0.006586357   -0.031565220   -0.021950304
     22        1          -0.006049808    0.016539385   -0.007150131
     23        1          -0.013979788    0.000228867    0.011375513
     24        1           0.012752031    0.005685180    0.009032211
     25        6          -0.004453510    0.034970317   -0.004604769
     26        1          -0.001138663   -0.017631854    0.006102756
     27        6          -0.008988943   -0.005050386    0.019689175
     28        1           0.018139020   -0.003859525   -0.003247992
     29        1          -0.005001796   -0.010903329   -0.014171342
     30        1          -0.001052730    0.014681916   -0.009758711
     31        6          -0.012140063   -0.019462133   -0.012800852
     32        1           0.005025447    0.016600413   -0.003466955
     33        1          -0.001628471    0.001323899    0.017929428
     34        1           0.017033488   -0.005870388    0.001895797
 -------------------------------------------------------------------
 Cartesian Forces:  Max     0.034970317 RMS     0.011338152

 GradGradGradGradGradGradGradGradGradGradGradGradGradGradGradGradGradGrad
 Berny optimization.
 FormGI is forming the generalized inverse of G from B-inverse, IUseBI=4.
 Internal  Forces:  Max     0.041570561 RMS     0.007091374
 Search for a local minimum.
 Step number   1 out of a maximum of  185
 All quantities printed in internal units (Hartrees-Bohrs-Radians)
 Mixed Optimization -- RFO/linear search
 Second derivative matrix not updated -- first step.
 ITU=  0
     Eigenvalues ---    0.00237   0.00237   0.00237   0.00237   0.00237
     Eigenvalues ---    0.00671   0.00672   0.01232   0.01319   0.01351
     Eigenvalues ---    0.01980   0.01998   0.02010   0.02056   0.02060
     Eigenvalues ---    0.02103   0.02127   0.04219   0.04267   0.04635
     Eigenvalues ---    0.04814   0.05443   0.05720   0.05720   0.05720
     Eigenvalues ---    0.05720   0.05799   0.05800   0.05812   0.05812
     Eigenvalues ---    0.05919   0.07243   0.07243   0.16000   0.16000
     Eigenvalues ---    0.16000   0.16000   0.16000   0.16000   0.16000
     Eigenvalues ---    0.16000   0.16000   0.16000   0.16000   0.16000
     Eigenvalues ---    0.16000   0.16000   0.16000   0.16000   0.16000
     Eigenvalues ---    0.16000   0.16074   0.16770   0.17421   0.17562
     Eigenvalues ---    0.23434   0.23478   0.25000   0.25000   0.25000
     Eigenvalues ---    0.25000   0.25000   0.28519   0.28519   0.28519
     Eigenvalues ---    0.28519   0.28519   0.31326   0.31639   0.31641
     Eigenvalues ---    0.31878   0.31879   0.31881   0.31882   0.31910
     Eigenvalues ---    0.31912   0.35133   0.35929   0.37230   0.37230
     Eigenvalues ---    0.37230   0.37230   0.37230   0.37230   0.37230
     Eigenvalues ---    0.37230   0.37230   0.37230   0.41250   0.41442
     Eigenvalues ---    0.44444   0.45046   0.45359   0.46156   0.49845
     Eigenvalues ---    0.53420
 RFO step:  Lambda=-3.34640443D-02 EMin= 2.36824146D-03
 Linear search not attempted -- first point.
 Maximum step size (   0.300) exceeded in Quadratic search.
    -- Step size scaled by   0.874
 Iteration  1 RMS(Cart)=  0.07875876 RMS(Int)=  0.00292721
 Iteration  2 RMS(Cart)=  0.00459840 RMS(Int)=  0.00025573
 Iteration  3 RMS(Cart)=  0.00001407 RMS(Int)=  0.00025560
 Iteration  4 RMS(Cart)=  0.00000000 RMS(Int)=  0.00025560
 Variable       Old X    -DE/DX   Delta X   Delta X   Delta X     New X
                                 (Linear)    (Quad)   (Total)
    R1        2.65394  -0.00345   0.00000  -0.00653  -0.00653   2.64741
    R2        2.64653   0.00010   0.00000   0.00049   0.00046   2.64699
    R3        2.04193   0.00573   0.00000   0.01276   0.01276   2.05469
    R4        2.66368  -0.00256   0.00000  -0.00538  -0.00534   2.65834
    R5        2.91018  -0.00356   0.00000  -0.00976  -0.00976   2.90042
    R6        2.65938  -0.00566   0.00000  -0.01069  -0.01066   2.64872
    R7        2.60022  -0.00242   0.00000  -0.00398  -0.00398   2.59624
    R8        2.63532   0.00309   0.00000   0.00572   0.00572   2.64103
    R9        2.91018  -0.01213   0.00000  -0.03328  -0.03328   2.87689
   R10        2.64545   0.00481   0.00000   0.00921   0.00918   2.65463
   R11        2.05459  -0.00325   0.00000  -0.00738  -0.00738   2.04721
   R12        2.91018   0.00326   0.00000   0.00894   0.00894   2.91912
   R13        1.83264  -0.00389   0.00000  -0.00598  -0.00598   1.82666
   R14        2.84810   0.01849   0.00000   0.04620   0.04620   2.89430
   R15        2.84806   0.01903   0.00000   0.04754   0.04754   2.89560
   R16        2.12095  -0.01677   0.00000  -0.04226  -0.04226   2.07869
   R17        2.11009  -0.01271   0.00000  -0.03152  -0.03152   2.07858
   R18        2.11063  -0.01149   0.00000  -0.02851  -0.02851   2.08212
   R19        2.11061  -0.01254   0.00000  -0.03110  -0.03110   2.07950
   R20        2.11005  -0.01240   0.00000  -0.03073  -0.03073   2.07932
   R21        2.11066  -0.01269   0.00000  -0.03150  -0.03150   2.07917
   R22        2.11067  -0.01151   0.00000  -0.02857  -0.02857   2.08210
   R23        2.02201   0.01845   0.00000   0.03975   0.03975   2.06176
   R24        2.02201   0.01762   0.00000   0.03796   0.03796   2.05997
   R25        2.02201   0.01650   0.00000   0.03553   0.03553   2.05754
   R26        2.02201   0.01869   0.00000   0.04026   0.04026   2.06226
   R27        2.91018   0.00798   0.00000   0.02188   0.02188   2.93205
   R28        2.91018   0.00344   0.00000   0.00944   0.00944   2.91962
   R29        2.02201   0.01833   0.00000   0.03948   0.03948   2.06149
   R30        2.02201   0.01774   0.00000   0.03821   0.03821   2.06022
   R31        2.02201   0.01728   0.00000   0.03722   0.03722   2.05923
   R32        2.02201   0.01719   0.00000   0.03702   0.03702   2.05903
   R33        2.02201   0.01718   0.00000   0.03701   0.03701   2.05902
   R34        2.02201   0.01792   0.00000   0.03860   0.03860   2.06061
    A1        2.16150  -0.00174   0.00000  -0.00584  -0.00583   2.15567
    A2        2.05609   0.00150   0.00000   0.00575   0.00574   2.06183
    A3        2.06560   0.00025   0.00000   0.00009   0.00009   2.06569
    A4        2.03570   0.00442   0.00000   0.01206   0.01213   2.04784
    A5        2.12374  -0.00189   0.00000  -0.00504  -0.00509   2.11865
    A6        2.12374  -0.00253   0.00000  -0.00702  -0.00706   2.11668
    A7        2.12207  -0.00083   0.00000  -0.00411  -0.00423   2.11784
    A8        2.07109   0.00566   0.00000   0.01824   0.01795   2.08903
    A9        2.09002  -0.00483   0.00000  -0.01413  -0.01439   2.07563
   A10        2.07457   0.00032   0.00000   0.00106   0.00112   2.07569
   A11        2.10431  -0.00382   0.00000  -0.01182  -0.01185   2.09245
   A12        2.10431   0.00350   0.00000   0.01076   0.01073   2.11503
   A13        2.13090  -0.00075   0.00000  -0.00062  -0.00063   2.13027
   A14        2.05609  -0.00177   0.00000  -0.00938  -0.00938   2.04671
   A15        2.09620   0.00252   0.00000   0.01001   0.01001   2.10621
   A16        2.04162  -0.00142   0.00000  -0.00254  -0.00258   2.03904
   A17        2.12078  -0.01443   0.00000  -0.04542  -0.04540   2.07538
   A18        2.12078   0.01585   0.00000   0.04796   0.04798   2.16876
   A19        2.21796  -0.04157   0.00000  -0.18781  -0.18781   2.03016
   A20        1.91065   0.00265   0.00000   0.02193   0.02166   1.93231
   A21        1.91073   0.00322   0.00000   0.02488   0.02464   1.93536
   A22        1.86796  -0.00233   0.00000  -0.01672  -0.01645   1.85151
   A23        1.95131  -0.00207   0.00000  -0.00065  -0.00130   1.95001
   A24        1.91058  -0.00081   0.00000  -0.01624  -0.01623   1.89435
   A25        1.91072  -0.00067   0.00000  -0.01391  -0.01389   1.89683
   A26        1.92741   0.00345   0.00000   0.01619   0.01609   1.94350
   A27        1.93087   0.00173   0.00000   0.00730   0.00725   1.93812
   A28        1.93096   0.00299   0.00000   0.01346   0.01337   1.94434
   A29        1.89226  -0.00267   0.00000  -0.01196  -0.01202   1.88024
   A30        1.89233  -0.00309   0.00000  -0.01294  -0.01306   1.87927
   A31        1.88882  -0.00274   0.00000  -0.01351  -0.01354   1.87527
   A32        1.92749   0.00380   0.00000   0.01778   0.01766   1.94515
   A33        1.93084   0.00328   0.00000   0.01471   0.01461   1.94545
   A34        1.93084   0.00177   0.00000   0.00747   0.00741   1.93825
   A35        1.89232  -0.00343   0.00000  -0.01451  -0.01466   1.87766
   A36        1.89230  -0.00285   0.00000  -0.01269  -0.01275   1.87955
   A37        1.88887  -0.00292   0.00000  -0.01434  -0.01437   1.87449
   A38        1.91063   0.00503   0.00000   0.02216   0.02203   1.93267
   A39        1.91063   0.00345   0.00000   0.01533   0.01521   1.92585
   A40        1.91063   0.00154   0.00000   0.00780   0.00769   1.91833
   A41        1.91063  -0.00480   0.00000  -0.02335  -0.02348   1.88715
   A42        1.91063  -0.00312   0.00000  -0.01358  -0.01369   1.89694
   A43        1.91063  -0.00211   0.00000  -0.00835  -0.00843   1.90220
   A44        1.91063  -0.00499   0.00000  -0.03774  -0.03727   1.87336
   A45        1.91063  -0.00320   0.00000   0.00148  -0.00025   1.91039
   A46        1.91063   0.01405   0.00000   0.08350   0.08347   1.99410
   A47        1.91063   0.00180   0.00000  -0.01776  -0.01825   1.89239
   A48        1.91063  -0.00385   0.00000  -0.02937  -0.02882   1.88182
   A49        1.91063  -0.00381   0.00000  -0.00009  -0.00167   1.90896
   A50        1.91063   0.00355   0.00000   0.01564   0.01547   1.92611
   A51        1.91063   0.00621   0.00000   0.02837   0.02813   1.93876
   A52        1.91063   0.00303   0.00000   0.01380   0.01363   1.92426
   A53        1.91063  -0.00493   0.00000  -0.02243  -0.02267   1.88797
   A54        1.91063  -0.00344   0.00000  -0.01616  -0.01625   1.89439
   A55        1.91063  -0.00443   0.00000  -0.01922  -0.01946   1.89118
   A56        1.91063   0.00394   0.00000   0.01885   0.01856   1.92919
   A57        1.91063   0.00666   0.00000   0.03224   0.03192   1.94255
   A58        1.91063   0.00128   0.00000   0.00258   0.00257   1.91320
   A59        1.91063  -0.00374   0.00000  -0.01049  -0.01105   1.89958
   A60        1.91063  -0.00366   0.00000  -0.02081  -0.02079   1.88985
   A61        1.91063  -0.00448   0.00000  -0.02236  -0.02240   1.88824
    D1       -0.00001  -0.00020   0.00000  -0.00366  -0.00362  -0.00362
    D2        3.14159   0.00014   0.00000   0.00278   0.00289  -3.13871
    D3        3.14156  -0.00018   0.00000  -0.00323  -0.00325   3.13832
    D4       -0.00003   0.00016   0.00000   0.00321   0.00326   0.00323
    D5       -0.00001   0.00043   0.00000   0.00701   0.00697   0.00697
    D6        3.14159   0.00044   0.00000   0.00719   0.00715  -3.13445
    D7       -3.14158   0.00040   0.00000   0.00658   0.00660  -3.13497
    D8        0.00002   0.00041   0.00000   0.00676   0.00677   0.00679
    D9        0.00001  -0.00005   0.00000  -0.00033  -0.00034  -0.00033
   D10        3.14159   0.00237   0.00000   0.03932   0.03964  -3.10196
   D11       -3.14158  -0.00039   0.00000  -0.00676  -0.00684   3.13477
   D12       -0.00000   0.00203   0.00000   0.03289   0.03314   0.03314
   D13        1.08495   0.00048   0.00000   0.01121   0.01145   1.09640
   D14       -1.05972  -0.00076   0.00000  -0.01839  -0.01865  -1.07837
   D15       -3.12908  -0.00037   0.00000  -0.00578  -0.00578  -3.13485
   D16       -2.05664   0.00084   0.00000   0.01797   0.01821  -2.03843
   D17        2.08188  -0.00040   0.00000  -0.01163  -0.01189   2.06999
   D18        0.01252  -0.00001   0.00000   0.00098   0.00099   0.01350
   D19       -0.00001   0.00006   0.00000   0.00063   0.00058   0.00058
   D20        3.14159   0.00028   0.00000   0.00475   0.00464  -3.13696
   D21       -3.14158  -0.00239   0.00000  -0.03944  -0.03910   3.10251
   D22        0.00001  -0.00217   0.00000  -0.03532  -0.03504  -0.03503
   D23       -1.72279  -0.00213   0.00000  -0.03479  -0.03484  -1.75763
   D24        1.41878   0.00025   0.00000   0.00411   0.00417   1.42295
   D25       -0.00001   0.00018   0.00000   0.00298   0.00305   0.00304
   D26        3.14159   0.00007   0.00000   0.00134   0.00137  -3.14023
   D27        3.14158  -0.00004   0.00000  -0.00115  -0.00106   3.14052
   D28       -0.00000  -0.00015   0.00000  -0.00278  -0.00275  -0.00275
   D29       -1.08130   0.00013   0.00000  -0.00100  -0.00099  -1.08229
   D30        1.01309  -0.00055   0.00000  -0.00665  -0.00661   1.00648
   D31        3.10749  -0.00008   0.00000  -0.00271  -0.00270   3.10478
   D32        2.06029   0.00035   0.00000   0.00319   0.00317   2.06345
   D33       -2.12850  -0.00033   0.00000  -0.00245  -0.00246  -2.13096
   D34       -0.03411   0.00015   0.00000   0.00148   0.00145  -0.03265
   D35        0.00002  -0.00041   0.00000  -0.00657  -0.00661  -0.00660
   D36       -3.14158  -0.00042   0.00000  -0.00675  -0.00680   3.13481
   D37       -3.14159  -0.00030   0.00000  -0.00490  -0.00487   3.13673
   D38        0.00001  -0.00031   0.00000  -0.00508  -0.00505  -0.00505
   D39       -1.04153   0.00160   0.00000   0.02159   0.02127  -1.02025
   D40        1.05287  -0.00121   0.00000  -0.02237  -0.02270   1.03017
   D41       -3.13592   0.00077   0.00000   0.02954   0.03019  -3.10573
   D42        2.10007   0.00162   0.00000   0.02178   0.02146   2.12153
   D43       -2.08872  -0.00119   0.00000  -0.02219  -0.02252  -2.11124
   D44        0.00567   0.00079   0.00000   0.02973   0.03037   0.03604
   D45        1.02127  -0.00202   0.00000  -0.02069  -0.02070   1.00057
   D46        3.11628  -0.00199   0.00000  -0.02038  -0.02040   3.09588
   D47       -1.07389  -0.00234   0.00000  -0.02377  -0.02382  -1.09772
   D48       -3.14154   0.00250   0.00000   0.02535   0.02534  -3.11620
   D49       -1.04653   0.00253   0.00000   0.02566   0.02564  -1.02089
   D50        1.04648   0.00217   0.00000   0.02226   0.02221   1.06870
   D51       -1.02122  -0.00027   0.00000  -0.00378  -0.00371  -1.02494
   D52        1.07378  -0.00024   0.00000  -0.00347  -0.00341   1.07037
   D53       -3.11639  -0.00060   0.00000  -0.00687  -0.00684  -3.12323
   D54       -1.02132   0.00180   0.00000   0.01949   0.01950  -1.00181
   D55        1.07380   0.00211   0.00000   0.02244   0.02251   1.09631
   D56       -3.11641   0.00175   0.00000   0.01893   0.01896  -3.09745
   D57        3.14154  -0.00239   0.00000  -0.02485  -0.02486   3.11667
[...]
 .00000246,-0.00000113,0.00000769,-0.00000392,0.00000408,-0.00000002,0.
 00000264,-0.00002111,-0.00000197,0.00000942,-0.00000365,-0.00000566,-0
 .00001819,0.00000788,-0.00000366,0.00000897,-0.00000641,-0.00000268,0.
 00000028,-0.00000635,0.00000133,-0.00000239,0.00000117,-0.00000628,0.0
 0760452,-0.00413575,0.01822320,0.00079175,0.00046921,-0.00037612,0.017
 49958,-0.05941923,0.04606288,0.00439800,-0.00325547,0.01418351,-0.0171
 1695,0.06067295,0.00040648,-0.00009248,0.00026816,0.00007504,0.0000707
 7,0.00000495,0.00007774,0.00000548,-0.00003041,0.00000567,0.00001320,-
 0.00004172,0.00014887,-0.00058888,-0.00004711,-0.00127381,0.00016380,0
 .00065795,0.00000350,0.00001977,-0.00003172,-0.00000676,0.00012540,0.0
 0003863,-0.00001768,-0.00000492,0.00004731,0.00000288,0.00000568,-0.00
 002272,0.00002133,-0.00000681,-0.00002109,-0.00000489,0.00001015,0.000
 00026,0.00000653,0.00000466,-0.00001723,0.00000452,0.00000163,0.000010
 22,-0.00000876,-0.00000211,0.00001163,0.00000343,-0.00000490,0.0000030
 6,0.00000277,-0.00000555,-0.00000944,0.00001553,-0.00001895,0.00001718
 ,-0.00000039,0.00002135,0.00000047,-0.00001501,-0.00000669,0.00000684,
 0.00000129,-0.00000758,-0.00000538,0.00002178,-0.00001324,0.00000192,-
 0.00000955,0.00000006,0.00000785,0.00000038,0.00001660,-0.00000812,-0.
 00537317,0.00164416,-0.01378033,0.00002683,0.00018330,0.00088796,-0.08
 164093,0.04635295,-0.27362120,0.00075982,-0.00074325,0.00425884,0.0891
 2436,-0.05311048,0.29600586,-0.00055568,0.00002604,-0.00026501,0.00029
 097,-0.00020335,-0.00005378,0.00010681,0.00028541,0.00016336,-0.000352
 72,0.00027459,-0.00004058,-0.00042438,-0.00024815,-0.00013571,0.001627
 98,-0.00023412,-0.00076615,0.00005448,0.00011238,0.00008693,-0.0004169
 7,0.00018822,0.00073430,0.00007217,-0.00002788,0.00002967,-0.00002215,
 0.00000663,0.00000594,-0.00003668,-0.00001279,-0.00000559,0.00002117,-
 0.00001105,0.00001402,0.00002751,-0.00000238,-0.00000604,-0.00000128,-
 0.00000077,0.00000002,-0.00000112,-0.00000259,0.00000031,0.00000086,0.
 00001421,-0.00000166,-0.00000370,0.00001109,0.00000170,-0.00000165,0.0
 0000130,-0.00000585,-0.00000505,0.00000746,0.00000573,-0.00000144,0.00
 000710,0.00001201,-0.00000990,-0.00000922,0.00000578,-0.00000328,-0.00
 000426,-0.00000030,0.00001997,0.00000773,-0.00000384,-0.00000644,0.000
 01567,0.00002983,-0.00340995,-0.01973217,-0.01103552,-0.00247383,-0.00
 287767,0.00260260,-0.05276911,-0.02606495,-0.01538626,0.00507385,0.025
 84397,0.01521213,-0.00191134,-0.01028402,-0.00526634,0.05427677,-0.000
 44674,0.00005491,-0.00014791,0.00019550,-0.00008250,-0.00007531,0.0002
 0212,0.00014356,0.00014300,-0.00025267,0.00033279,0.00003781,0.0000419
 6,-0.00019061,-0.00070247,0.00143970,0.00022855,0.00038666,0.00006900,
 0.00008002,0.00009513,0.00036427,0.00034270,0.00029478,-0.00009507,0.0
 0006128,0.00004785,-0.00001282,-0.00001142,-0.00000843,-0.00003407,0.0
 0000999,0.00002163,0.00002382,-0.00001739,-0.00000019,0.00002951,-0.00
 000934,-0.00000216,-0.00001255,-0.00000193,-0.00000324,-0.00000120,-0.
 00000022,0.00000322,-0.00000648,0.00000622,-0.00000214,-0.00000543,0.0
 0001457,0.00000349,-0.00000066,0.00000407,-0.00000341,-0.00000622,0.00
 000965,0.00000825,-0.00000744,0.00000319,0.00000508,-0.00003153,0.0000
 0805,-0.00003555,-0.00000323,0.00001100,0.00000953,0.00000465,0.000006
 80,0.00000179,0.00000418,0.00001825,0.00001386,-0.00255746,-0.01816604
 ,-0.00957745,-0.00300302,-0.00133587,0.00272239,-0.02672616,-0.2447492
 0,-0.10913767,-0.00184954,-0.01219341,-0.00684757,0.00088686,0.0072071
 1,0.00312892,0.03136029,0.26693629,0.00006181,-0.00006566,0.00016562,-
 0.00003384,0.00003377,-0.00000372,-0.00001667,-0.00007816,0.00001674,-
 0.00002187,0.00004066,-0.00004193,0.00025305,0.00015546,-0.00026292,-0
 .00049972,-0.00045635,0.00032522,-0.00002793,0.00001268,-0.00003621,0.
 00045932,-0.00003751,0.00000904,-0.00002215,0.00003341,-0.00000420,-0.
 00001159,-0.00000976,0.00000282,-0.00001684,0.00001615,-0.00001166,0.0
 0001239,-0.00000168,0.00001152,0.00001998,-0.00001013,-0.00000519,-0.0
 0000169,-0.00000096,0.00000473,-0.00000178,-0.00000131,0.00000193,0.00
 000375,0.00000550,-0.00000147,-0.00000332,0.00000017,-0.00000272,0.000
 00407,-0.00000375,-0.00000204,-0.00000364,0.00001499,-0.00000083,-0.00
 000511,0.00000281,0.00000790,0.00001860,0.00001562,-0.00003359,-0.0000
 1917,0.00000670,0.00000188,0.00001524,-0.00000312,-0.00000992,0.000003
 17,-0.00000383,0.00002151,0.00126795,0.01517872,0.00787207,0.00243839,
 0.00260358,-0.00089096,-0.01571243,-0.10934094,-0.11049528,-0.00002614
 ,-0.00068987,-0.00146135,-0.00244919,-0.02703848,-0.01381380,0.0145376
 3,0.11972564,0.11681264,-0.00121712,0.00246250,0.00057116,-0.00113468,
 -0.00046930,0.00113376,0.00052976,-0.00041249,-0.00024590,-0.00031749,
 -0.00078217,0.00012392,0.00026315,-0.00033027,-0.00071852,-0.01749373,
 0.00794414,-0.02800961,0.00013661,0.00019659,-0.00065908,-0.00015810,0
 .00009833,-0.00017042,-0.00095859,0.00049706,0.00007072,0.00002713,-0.
 00009310,-0.00007333,-0.00003377,0.00017692,0.00020521,-0.00003862,0.0
 0005110,-0.00007901,-0.00004381,-0.00006430,0.00001729,-0.00007488,-0.
 00003127,-0.00003797,-0.00001487,0.00001529,0.00001425,-0.00001539,-0.
 00006081,0.00001231,0.00002173,-0.00001934,-0.00001542,0.00000036,0.00
 000800,0.00001263,0.00000487,0.00000159,-0.00001126,-0.00001755,-0.000
 01177,-0.00005110,0.00006173,-0.00001538,-0.00006974,-0.00004404,0.000
 04018,0.00001719,-0.00001826,0.00003095,0.00002268,0.00001974,0.000011
 49,0.00001996,-0.08724253,0.00823098,-0.03494891,-0.00141157,0.0009023
 3,-0.00372977,0.00833845,-0.00470364,0.02021171,0.00050324,-0.00010669
 ,0.00063784,-0.00302768,-0.00354766,0.00349775,0.00053036,0.00029002,-
 0.00022931,0.56600806,-0.00097380,-0.00112306,-0.00021757,0.00054415,-
 0.00011775,-0.00027811,-0.00014033,0.00036762,0.00043660,-0.00022005,0
 .00031964,-0.00021633,0.00100114,0.00029534,0.00036671,0.00774995,-0.0
 0399843,0.01346741,0.00010023,0.00026894,0.00011274,0.00006409,-0.0005
 6041,0.00006295,0.00038309,-0.00021339,-0.00011576,0.00003069,0.000061
 72,0.00002437,0.00005365,-0.00003907,-0.00013463,-0.00000333,0.0000067
 6,-0.00001431,-0.00001379,-0.00002331,-0.00000473,0.00000675,-0.000000
 91,0.00001249,-0.00002640,0.00000409,0.00001849,0.00000834,-0.00000385
 ,0.00001528,0.00000341,-0.00000534,-0.00002416,-0.00000221,-0.00000057
 ,0.00000551,-0.00000065,0.00001253,0.00001403,-0.00000566,0.00000306,-
 0.00000271,-0.00002774,0.00006065,-0.00003498,-0.00001866,0.00002789,-
 0.00000577,0.00000082,0.00000875,0.00001205,-0.00001149,-0.00005108,-0
 .00000427,0.00717780,-0.08404678,0.01749450,-0.00988534,0.00680126,-0.
 02612657,0.00517992,-0.00638161,0.02383547,0.00097504,0.00070126,-0.00
 085783,-0.00257814,-0.00218288,0.00265985,0.00108179,0.00072992,0.0004
 2620,0.01230887,0.57014914,0.00182805,-0.00025325,-0.00036779,0.000322
 40,0.00006242,-0.00017388,-0.00041635,0.00032418,0.00024787,-0.0001876
 2,-0.00014134,-0.00012293,0.00198044,-0.00086230,-0.00008822,-0.009025
 57,0.00387608,0.00274138,0.00000498,0.00005520,0.00010083,-0.00023124,
 -0.00032075,0.00001407,0.00091704,-0.00045980,-0.00012980,-0.00001006,
 0.00009352,0.00006618,-0.00001037,-0.00018689,-0.00007927,0.00001394,-
 0.00002607,0.00006756,0.00003567,0.00005073,-0.00002127,0.00006357,0.0
 0002466,0.00002467,0.00001376,-0.00001101,-0.00001716,0.00002056,0.000
 04200,-0.00001093,-0.00001110,0.00000285,0.00000990,-0.00000507,-0.000
 00254,-0.00001357,-0.00000304,-0.00001179,-0.00000018,0.00002256,0.000
 01292,0.00004122,0.00009121,0.00010013,-0.00004178,0.00000995,-0.00002
 069,-0.00002067,0.00004159,-0.00006602,-0.00002563,-0.00002950,-0.0000
 4279,-0.00001233,-0.02867446,0.01596290,-0.16369930,-0.00736710,0.0046
 4573,-0.01954453,-0.00242015,0.00795661,-0.02241737,-0.00102922,-0.000
 66268,0.00055800,0.00160742,0.00137392,-0.00033330,-0.00093044,-0.0012
 9836,0.00177448,-0.03974339,0.02065911,0.48720181,-0.00044765,-0.00007
 289,-0.00005566,0.00023128,-0.00015708,-0.00005309,0.00005722,0.000212
 31,0.00014320,-0.00032830,0.00011088,0.00011530,-0.00030674,-0.0000905
 5,-0.00018956,0.00091220,-0.00097869,0.00030996,0.00002793,0.00008842,
 0.00006536,-0.00012431,0.00065278,-0.00029260,0.00008326,-0.00001190,-
 0.00000742,-0.00001927,0.00001320,-0.00000561,-0.00003353,-0.00000839,
 -0.00001312,0.00002364,-0.00001241,0.00000873,0.00002465,0.00000582,-0
 .00000800,0.00000118,0.00000113,-0.00000120,-0.00000219,-0.00000477,0.
 00000219,0.00000141,0.00001472,-0.00000042,-0.00000496,0.00000900,0.00
 000474,-0.00000065,-0.00000107,-0.00000269,-0.00000466,0.00000500,0.00
 000537,-0.00000021,0.00000535,0.00001314,0.00000320,-0.00000177,-0.000
 00451,0.00001814,-0.00000725,0.00001416,-0.00000753,-0.00000166,-0.000
 00517,0.00000236,0.00003334,-0.00000738,-0.00222135,-0.01031427,-0.006
 93970,-0.00018049,0.00075886,-0.00248063,0.00014334,0.00035814,0.00101
 533,0.00004721,0.00010811,0.00002264,-0.00015115,0.00000506,0.00002459
 ,0.00038821,0.00013488,0.00008239,-0.05246925,-0.02268706,-0.01433380,
 0.05173081,-0.00003254,0.00009109,-0.00009985,0.00000420,-0.00001958,0
 .00003982,0.00009063,0.00001471,-0.00004136,-0.00010959,0.00008564,0.0
 0010881,0.00010911,-0.00047814,0.00040291,0.00024523,0.00039104,-0.000
 45416,-0.00000305,0.00001755,0.00002619,0.00060095,-0.00003884,0.00027
 673,-0.00008159,0.00005969,0.00002345,-0.00000979,-0.00000801,-0.00001
 533,-0.00002619,0.00001779,0.00000833,0.00002708,-0.00001578,-0.000000
 67,0.00002090,-0.00000174,-0.00000452,-0.00000604,0.00000243,-0.000004
 65,0.00000214,-0.00000311,0.00000144,-0.00000547,0.00000879,-0.0000033
 3,-0.00000716,0.00001178,0.00001045,-0.00000072,0.00000259,-0.00000255
 ,-0.00000581,0.00000297,0.00000363,-0.00000197,0.00000117,0.00000513,-
 0.00001631,-0.00003064,0.00003740,0.00000898,-0.00000799,0.00000613,-0
 .00001636,0.00001465,0.00000209,0.00001099,0.00001742,-0.00000432,0.00
 022838,0.00664266,0.00439144,0.00060022,0.00100465,0.00191906,0.000076
 16,0.00114206,-0.00003223,-0.00008477,-0.00005280,0.00002379,0.0000968
 7,0.00019988,-0.00012707,0.00022597,0.00019898,-0.00035413,-0.02319463
 ,-0.22765928,-0.11902350,0.02413825,0.24632765,-0.00063462,-0.00009146
 ,0.00002099,0.00025278,-0.00018755,-0.00000626,0.00020328,0.00022260,0
 .00019508,-0.00033941,0.00026231,0.00018066,-0.00029392,-0.00055275,-0
 .00008770,0.00173355,-0.00021670,0.00087787,0.00010168,0.00013668,0.00
 005271,0.00005376,0.00058283,0.00009218,-0.00003517,0.00006618,-0.0000
 1339,-0.00001300,-0.00000503,-0.00000354,-0.00002310,0.00002333,-0.000
 02281,0.00002322,-0.00000711,0.00000509,0.00002186,-0.00001361,-0.0000
 0755,-0.00001099,-0.00000316,-0.00000214,-0.00000484,0.00000016,0.0000
 0547,-0.00000315,0.00000634,-0.00000045,-0.00000269,0.00001024,-0.0000
 0269,0.00000036,0.00000123,-0.00000117,-0.00000506,0.00001297,0.000009
 35,-0.00000844,0.00000354,0.00000445,-0.00003897,-0.00000610,-0.000007
 86,0.00000274,0.00000824,0.00000680,0.00000576,0.00000771,0.00000253,-
 0.00000031,0.00002047,0.00001341,-0.00308219,-0.02615719,-0.01811989,-
 0.00248324,0.00209715,-0.00552507,-0.00031142,-0.00153106,0.00175270,0
 .00007456,0.00006852,-0.00009980,-0.00008156,0.00032304,0.00039297,0.0
 0039196,0.00094577,-0.00002152,-0.01468876,-0.11858043,-0.12788453,0.0
 1827320,0.13062355,0.13996334,0.00022504,-0.00025656,0.00002692,-0.000
 03097,0.00000158,0.00000840,-0.00010513,0.00001586,-0.00001222,0.00004
 052,0.00003327,0.00007317,0.00005022,-0.00002448,0.00001321,0.00105812
 ,0.00077714,-0.00031143,0.00000124,0.00000218,-0.00003206,0.00001832,0
 .00001576,-0.00001538,0.00015871,-0.00006505,-0.00002088,-0.00001096,0
 .00001511,0.00001025,-0.00001475,-0.00001888,-0.00001562,0.00001447,-0
 .00000597,0.00001313,0.00001262,0.00000861,-0.00000762,0.00001085,0.00
 000384,0.00000306,-0.00000406,-0.00000307,-0.00000142,0.00000807,0.000
 01106,0.00000158,-0.00000478,-0.00000083,-0.00000087,-0.00000224,0.000
 00079,-0.00000332,-0.00000306,-0.00000327,0.00000008,0.00000594,0.0000
 0396,0.00001136,0.00000055,0.00000819,0.00000633,0.00000426,-0.0000108
 4,-0.00000381,0.00000890,-0.00000854,-0.00000657,-0.00000509,-0.000001
 89,-0.00000002,0.00745393,0.00910802,-0.00605916,0.00031914,-0.0000836
 3,0.00079786,-0.00051373,0.00055970,-0.00190166,0.00030871,-0.00005464
 ,-0.00024214,0.00071457,0.00022317,-0.00046309,-0.00013395,0.00002007,
 -0.00001980,-0.15438815,-0.10323560,0.07903013,-0.00207927,-0.00090531
 ,0.00071465,0.16405187,0.00038414,0.00012527,0.00002444,0.00000474,0.0
 0005225,0.00004398,0.00005865,-0.00008607,-0.00000616,0.00009810,0.000
 02218,0.00001152,0.00004250,-0.00037205,-0.00038357,-0.00083173,0.0004
 1991,-0.00011137,-0.00001291,-0.00003657,0.00001254,-0.00002900,0.0000
 9120,0.00012721,-0.00002484,0.00004295,-0.00001354,-0.00000250,-0.0000
 1770,0.00001392,0.00001931,-0.00000876,0.00001108,-0.00001263,-0.00000
 206,0.00001353,-0.00001180,0.00000362,0.00000761,0.00000253,0.00000323
 ,-0.00000087,0.00001978,0.00000301,-0.00001543,-0.00000774,-0.00000148
 ,-0.00001120,-0.00000031,0.00000497,0.00000883,-0.00000133,0.00000579,
 -0.00000597,0.00000332,-0.00000691,-0.00000103,0.00000198,-0.00000192,
 -0.00000690,-0.00000860,-0.00000736,-0.00000307,-0.00000587,0.00000850
 ,-0.00000777,0.00002347,-0.00000985,-0.00000441,-0.00000559,-0.0000002
 6,0.00001737,-0.00358948,-0.00489760,0.00202709,0.00043392,0.00066460,
 0.00002173,0.00133383,0.00062464,0.00178594,-0.00028119,0.00003135,-0.
 00003448,-0.00055502,-0.00000263,0.00038620,0.00020454,0.00040959,-0.0
 0023109,-0.10211204,-0.15129258,0.07667658,-0.01736280,-0.01626806,0.0
 1347476,0.11281001,0.15963888,-0.00019538,-0.00017814,0.00023089,-0.00
 014422,0.00004035,-0.00009106,-0.00010067,-0.00006979,-0.00011280,0.00
 023392,0.00013084,0.00000064,-0.00039905,0.00009944,0.00024886,0.00144
 460,-0.00061532,0.00079131,-0.00000136,-0.00002878,-0.00006929,-0.0000
 0464,-0.00003584,0.00003609,0.00006371,-0.00005354,0.00002862,-0.00000
 058,0.00001426,-0.00000204,-0.00000579,0.00002618,-0.00001358,-0.00001
 648,0.00002329,0.00000580,-0.00000059,-0.00000106,-0.00000581,-0.00000
 329,-0.00001106,0.00000531,-0.00001708,0.00000044,0.00001096,0.0000153
 9,-0.00000674,0.00000980,0.00000594,-0.00001923,-0.00002352,0.00000559
 ,-0.00001181,0.00000879,0.00000335,0.00000996,-0.00000411,-0.00000345,
 0.00000030,0.00000437,-0.00001787,0.00001105,0.00000647,0.00000654,-0.
 00000992,-0.00000307,-0.00000192,-0.00000429,-0.00000051,-0.00000284,-
 0.00000531,-0.00000686,0.01956730,0.01899240,-0.01352345,0.00045192,-0
 .00067727,0.00110404,-0.00390642,0.00053988,-0.00565326,-0.00017562,-0
 .00032859,0.00022920,0.00126757,0.00149381,-0.00104100,-0.00007187,0.0
 0019985,0.00016604,0.07771500,0.07625550,-0.10722795,-0.01258860,-0.01
 091718,0.00982768,-0.08451160,-0.08565836,0.11661128,0.00007670,0.0006
 7970,0.00002093,-0.00021438,0.00005459,0.00022382,0.00040554,-0.000193
 46,-0.00005590,-0.00021250,-0.00010321,0.00001826,0.00004039,-0.000397
 78,-0.00036139,0.00036881,0.00012978,-0.00295705,0.00001821,-0.0000126
 1,-0.00008008,0.00005018,0.00007322,0.00001427,-0.00055524,0.00028464,
 0.00002970,0.00002888,-0.00006535,-0.00003018,0.00004620,0.00006478,0.
 00007845,-0.00002900,0.00001031,-0.00003994,-0.00003552,-0.00002633,0.
 00002073,-0.00003119,-0.00000715,-0.00001184,0.00001427,0.00000762,-0.
 00000321,-0.00002727,-0.00003354,-0.00000615,0.00000744,0.00000586,0.0
 0000987,0.00000520,0.00000459,0.00000534,0.00000672,0.00000459,-0.0000
 0034,-0.00001788,-0.00001341,-0.00003527,-0.00002419,-0.00003961,-0.00
 001164,-0.00002085,0.00003352,0.00000571,-0.00001712,0.00002825,0.0000
 2021,0.00001469,0.00000557,0.00001055,-0.01050842,0.00444192,0.0015631
 4,0.00022275,-0.00048167,0.00000203,0.00034182,-0.00042281,0.00095576,
 0.00072320,0.00011629,-0.00014332,0.00024950,-0.00021330,-0.00015070,0
 .00004952,-0.00001457,-0.00005554,-0.25632512,0.10316054,0.01842521,0.
 00468546,-0.00197875,0.00020746,-0.01716992,0.00941456,0.00138847,0.27
 783312,-0.00002859,-0.00042826,-0.00002688,0.00027965,-0.00009622,-0.0
 0007692,-0.00005315,0.00024015,0.00016896,-0.00021684,0.00004887,0.000
 15413,0.00013922,0.00003282,0.00009822,0.00059979,0.00088781,0.0014738
 5,-0.00002718,0.00001501,0.00005222,0.00000257,0.00031840,-0.00013464,
 0.00022042,-0.00009243,-0.00005140,-0.00001998,0.00002093,0.00001481,-
 0.00001843,-0.00002730,-0.00006596,0.00001864,-0.00000636,0.00003350,0
 .00001731,0.00001727,-0.00001314,0.00002084,0.00000595,0.00000610,0.00
 000228,-0.00000506,-0.00000402,0.00000988,0.00002367,-0.00000304,-0.00
 000364,0.00000241,0.00000061,-0.00000196,-0.00000398,-0.00000413,-0.00
 000306,-0.00000122,0.00000068,0.00000847,0.00000772,0.00001941,0.00000
 486,-0.00000857,0.00002485,0.00001906,-0.00002285,-0.00000279,0.000008
 52,-0.00001206,-0.00001067,-0.00000525,0.00001439,-0.00000616,0.005193
 92,-0.00368887,-0.00166000,-0.00045411,0.00054810,0.00024037,0.0005589
 7,-0.00007727,-0.00047428,-0.00034504,0.00004588,0.00046803,-0.0002574
 4,0.00011717,-0.00008100,0.00004101,-0.00005956,0.00005464,0.10268852,
 -0.10211824,-0.00852976,0.02505731,-0.01167123,-0.00154545,-0.01893976
 ,0.01085993,0.00079469,-0.11451681,0.10511302,-0.00068616,0.00073904,0
 .00023724,-0.00029731,-0.00015482,0.00031077,0.00033942,-0.00014590,-0
 .00007958,-0.00021819,-0.00009686,0.00019703,-0.00033519,-0.00032836,-
 0.00000111,-0.00069792,0.00063086,-0.00547923,0.00005947,0.00003642,-0
 .00019235,0.00018219,0.00028590,-0.00006676,-0.00052784,0.00028408,0.0
 0003870,0.00000769,-0.00005181,-0.00004290,-0.00001117,0.00009425,0.00
 007885,-0.00000828,0.00001479,-0.00004087,-0.00001548,-0.00002829,0.00
 000937,-0.00003775,-0.00001472,-0.00001728,-0.00000634,0.00000416,0.00
 000831,-0.00001304,-0.00002445,0.00000579,0.00000686,-0.00000059,-0.00
 000141,0.00000276,0.00000197,0.00000700,0.00000167,0.00000645,-0.00000
 042,-0.00001360,-0.00000651,-0.00002234,-0.00002323,-0.00004074,-0.000
 00531,-0.00000899,0.00001767,0.00001656,-0.00002649,0.00003414,0.00001
 520,0.00001826,0.00002637,0.00000330,-0.02799798,0.01489285,0.00200604
 ,0.00044684,-0.00048273,0.00143348,-0.00076814,-0.00025965,0.00149779,
 0.00051647,0.00010308,-0.00027906,0.00002233,-0.00041331,0.00020252,0.
 00014101,0.00004721,-0.00009484,0.01919810,-0.00926113,-0.05061559,0.0
 1688884,-0.00682547,-0.00159690,0.01291853,-0.00816911,-0.00154784,-0.
 01905735,0.00908519,0.05401581\\0.00001058,-0.00000078,-0.00000123,0.0
 0000312,0.00000535,0.00000199,-0.00001908,-0.00000334,-0.00000397,0.00
 001248,-0.00000019,0.00000157,-0.00001003,0.00000755,0.00000461,-0.000
 00351,-0.00000859,-0.00000220,-0.00000592,-0.00000310,-0.00000080,0.00
 000090,-0.00000036,-0.00000180,0.00000444,-0.00000339,0.00000013,0.000
 00026,0.00000265,0.00000042,0.00000253,-0.00000044,0.00000401,-0.00000
 018,0.00000311,-0.00000120,0.00000302,-0.00000413,0.00000079,0.0000002
 3,-0.00000288,-0.00000382,0.00000133,-0.00000122,-0.00000040,-0.000000
 07,-0.00000065,0.00000071,0.00000283,-0.00000160,-0.00000032,-0.000000
 42,0.00000033,0.00000001,0.00000284,0.00000109,-0.00000098,0.00000139,
 -0.00000172,-0.00000089,-0.00000221,-0.00000100,-0.00000808,-0.0000014
 0,-0.00000121,0.00000232,-0.00000179,0.00000012,0.00000155,-0.00000107
 ,0.00000172,0.00000085,0.00000506,0.00000757,-0.00000045,-0.00000108,-
 0.00000086,-0.00000137,-0.00000183,-0.00000134,0.00000551,-0.00000016,
 0.00000103,0.00000131,0.00000040,0.00000075,-0.00000026,-0.00000130,0.
 00000088,-0.00000145,0.00000084,0.00000132,-0.00000108,-0.00000067,0.0
 0000020,0.00000153,-0.00000066,0.00000083,0.00000152,-0.00000087,0.000
 00229,0.00000146\\\@
 The archive entry for this job was punched.


 Children are likely to live up to what you believe of them.
 -- Lady Bird Johnson
 Job cpu time:       0 days  3 hours  7 minutes 30.7 seconds.
 Elapsed time:       0 days  0 hours  3 minutes  9.6 seconds.
 File lengths (MBytes):  RWF=    351 Int=      0 D2E=      0 Chk=     15 Scr=      1
 Normal termination of Gaussian 16 at Fri Aug  5 08:15:49 2022.
